720
Lattice="26.178746239582857 -0.21847183362331946 0.11735072533964985 -0.15001241828132303 26.21493700474366 -0.07197056103984792 0.10735227514021137 -0.12200025759756504 26.40673683224252" Properties=species:S:1:pos:R:3:forces:R:3:momenta:R:3 energy=-3007.26318359375 stress="5.329982013790868e-05 0.00017487391596660018 -0.0002653375850059092 0.00017487391596660018 6.155177106847987e-05 0.0001152365657617338 -0.0002653375850059092 0.0001152365657617338 0.0006733873742632567" pbc="T T T"
N        9.64596276      10.38152682       3.29753423       1.11378234      -0.22215604      -1.65351625      -0.05338723       0.41452635      -0.74186096
C        8.26995958       9.88076484       3.63456291       1.88916619       2.25631336       2.59817166      -0.50973109       0.77670483       0.59396516
H        7.72861891       9.77025423       2.76868998      -1.15132717      -0.92352007      -2.20863336       0.14588597      -0.33851390       0.27376005
H        7.79217346      10.70970630       4.18179035      -0.03780738      -0.28838890       0.16183830      -0.33727718      -0.13219838      -0.02134084
H        8.47882222       9.05378008       4.28338725      -0.57346019      -0.93079972       0.21010085       0.06370792      -0.11475558       0.02775194
C       10.44480280       9.34955651       2.55975336      -0.27427379      -0.93878949      -0.29210528       0.31971039      -0.37531105       0.38561430
H       10.47529680       8.51304305       3.25434274       0.36800597      -0.42441256      -0.07452638       0.23674549      -0.09788858      -0.14323021
H       11.43217353       9.71558338       2.30276364       0.36031514       0.30868479       0.30587117       0.28070905       0.00491349      -0.22843227
H       10.00930467       9.01422573       1.58362071      -0.27343944       0.41744305       0.72665509      -0.13182501      -0.11323854      -0.18909263
H       10.26999542      10.75728657       4.04501226      -0.80493039      -0.11124955       0.31305631       0.21835485      -0.17204030       0.15515615
H        9.61502937      11.10602334       2.58775067      -0.54601054       0.96401266      -0.17377625       0.24158933       0.05176182       0.19641426
Cs       3.13573287      17.14881869       9.76362905      -0.00796277      -0.36887729      -0.16406694       3.59788376       0.87564581      -3.25700975
N        3.53693728       9.43476115       9.29538240       0.80721802      -1.62773620      -0.27761298      -0.90570565      -0.55603312       0.52056616
C        2.22322656       9.98816761       9.51215250      -1.27391505       0.80506448       2.50874222       0.62994103       0.07053219       0.34759191
H        2.33085340      11.02215118       9.89543598       0.02363417       0.05260244      -0.78419671       0.16448627       0.24615065      -0.42810762
H        1.74332415       9.53165009      10.45448056       0.50758466      -0.10377352      -1.40764609      -0.08539867      -0.05499040       0.42207585
H        1.59885555       9.88591316       8.64035732      -0.34895086       0.07906718      -0.34942746      -0.25292037       0.02310102       0.09214624
C        4.39311832       9.58744575      10.52598012      -1.23476818       0.07200578       0.92656227       0.32710154       0.26679454       0.69775842
H        4.51089452      10.71089122      10.68008840       0.39726048      -1.40839222      -0.13662976      -0.11995922       0.05932968      -0.15968075
H        5.25406198       8.92195255      10.43166852       0.52085139       0.59157962      -0.17057003      -0.18630450       0.07112680       0.12393263
H        3.82496723       9.14581900      11.40466336       0.27031983       0.59200326      -0.81720281      -0.01542313      -0.02522956       0.17786854
H        4.04953086       9.87812535       8.49342541      -0.20659301      -0.18441677       0.04035282       0.23405837       0.03104842      -0.12700878
H        3.40495681       8.40558397       8.99459165       0.51913073       1.07288526       0.39779884       0.01968213      -0.05359412       0.05839120
N        9.28311600      15.85043693       3.19642650       1.29530602       0.10317529      -1.56726646       0.40659720       0.94458581       0.52827432
C       10.02196064      14.63094643       2.76574108       0.04442280      -0.03356492      -0.83309653       0.37598354       0.72835312      -0.24711928
H       10.37743745      14.83099403       1.70744991      -0.22029267      -0.51250350       1.06266092      -0.07011006      -0.07614966      -0.06205823
H        9.36542105      13.76521723       2.85656201      -0.34064008      -0.02146880      -0.41282755       0.05460704      -0.07383946       0.40974541
H       10.82388308      14.42430341       3.46696691       0.54599287       0.26697159       0.07448508      -0.00071384       0.11549093      -0.15050182
C       10.19175526      17.04577738       3.14071021      -0.24586731      -0.53789089      -0.51127276      -0.31723153      -0.40343389      -0.79557128
H       11.18136899      16.65779996       3.35581745       0.43250893       0.20679654      -0.01456553      -0.37100086       0.22754069      -0.11380826
H        9.90156716      17.74287369       3.91792371      -0.14163377       0.48110019      -0.04364994       0.20922039      -0.08697739       0.30705404
H       10.10569009      17.41262182       2.09960933       0.30371026       0.31786222       0.55573150       0.18078370       0.06360317       0.20212008
H        8.95445392      15.72649255       4.13273975      -1.10325820      -0.14010632       1.08678271       0.19026855       0.15618258      -0.03391222
H        8.55639756      16.00712214       2.48015096      -0.69827018      -0.03904077       0.56611139      -0.00225271       0.09964281       0.03293615
Pb      -0.32712929      12.96175575       6.60035365       0.10964492       0.23695807       0.03817119      -3.13713265       4.51160227      -1.41629946
Pb       5.94808666      13.17816699       6.11385913       0.39198696       0.03209192       0.27680828      -5.72405952      -1.64709253      -0.30725855
Pb      -0.43335051      13.09025090      -0.13301974      -0.03044651       0.17967998       0.05060348       1.30805240       0.44987192       4.01796400
Pb       6.33739310      13.02292560      -0.50938235       0.09811626      -0.02019550       0.12328588       0.56658267       0.32534494       1.03656146
I        2.94232277      13.10759085       6.29184997      -0.15142844       0.02837304      -0.00185353       0.80139579       0.93439035       2.43407560
I        9.63758033      12.90252621       6.24775701       0.07118073      -0.09688024      -0.03786850       1.42674031       1.73508513       2.17583571
I        6.19554970       9.33034232       6.85620134      -0.03052466       0.02640571       0.12961516       1.50667483       1.68892859      -0.77034634
I        6.74275027      16.18369827       5.91651698      -0.17427314       0.02809838       0.15567890      -0.97627479       0.45084309       0.08835975
I        9.67982036      12.35104114      -0.47316152       0.07648214       0.02131918      -0.00532833       1.23749366      -0.20171034       1.33339622
I        3.20501047      13.54562795      13.74115433      -0.46355105       0.11337433      -0.09336998      -1.75641388      -0.97816124      -0.49617651
I        6.85865056      16.43318798      13.27368296      -0.04982443       0.37337766      -0.03393412      -0.14242741      -2.80962677      -0.35637121
I        6.12928494       9.81205569      -0.08747154       0.10754863       0.06977205      -0.15005841      -0.03237468      -3.72146415      -4.12286423
I       12.53903065      13.42484500       9.72872278       0.06271187      -0.00204419       0.19749211       0.71328196       0.73181771       2.59713141
I       -0.98766797      13.46346124       3.04035522       0.22053732      -0.41193329       0.03422226      -0.60664466       1.99384424      -1.54008331
I        6.09779666      13.12921122       3.13480065      -0.02301804      -0.05311376      -0.25649434       0.42725742      -0.51816608      -0.87159777
I        5.55145842      13.53062662       9.76988430       0.06852083       0.17248786       0.09167701      -1.12511880      -1.00112444       0.21087361
Cs       9.30782617       9.99884916      16.83706052       0.09554472      -0.09536662      -0.04195569       0.50372403      -3.55682994       0.20757895
Cs       3.56753845      16.07992594      23.07619612      -0.00850340       0.13195507       0.07044017      -0.42364329       2.07530035       0.14843404
N        2.25483736      10.01337373      22.38049964      -1.94678462       0.17247586       0.36252059      -0.60736084      -0.70850742       0.10163909
C        3.40126389       9.82984457      21.47250459       0.89885971       0.32502863       0.69874057      -0.52230497      -0.68495389       0.40414486
H        3.79233147       8.78005425      21.47240958      -0.35382252       0.64262201       0.34460316       0.18014475       0.09257720       0.06047800
H        4.17673187      10.57828022      21.74404909      -0.13541734      -0.48835240       0.07409915      -0.35038656       0.06080363       0.07736542
H        3.08470683      10.06734084      20.49512591      -0.47413797       0.22486274      -1.42790340      -0.06235861       0.31651264       0.07120823
C        2.56839509       9.50444277      23.74831151      -1.60600837      -0.12594585       0.77198132       0.17772224       0.41114238      -0.48018623
H        3.56020697       9.85351526      24.02247638       0.01844755       0.22941452       0.25716763      -0.10105504       0.22708353      -0.03287395
H        2.54151807       8.43397731      23.73711428       0.44487853      -1.04040897      -0.35229565       0.19147383       0.09083517      -0.02928984
H        1.73727092       9.69093805      24.51709308       1.11997698       0.58126362      -0.97819209       0.10493771       0.31796540      -0.19039822
H        1.34677449       9.61373430      21.93366688       1.31746190       0.08263409       0.69857137       0.00735435       0.16141580      -0.14335811
H        1.96088707      11.01769744      22.53478248       0.56397217      -0.23896286      -0.50307414      -0.21569332       0.04103218      -0.08637861
Cs       9.47913795      16.54105420      16.23258210       0.02766019       0.02661395       0.01579756       2.29282278       1.77303548       3.14790120
Pb      -0.26479975      13.47789837      19.82120407       0.54089880      -0.22729807      -0.02596119       2.90199736       0.54879533       0.02637559
Pb       6.53980180      13.34425147      19.23246442      -0.08458991      -0.17207753       0.74117358      -3.35857729      -0.72711497      -6.76682934
Pb      -0.37504884      13.29566554      13.44080970       0.25584260       0.05737844      -0.02379118       2.36317252      -2.48496940      -2.89030398
Pb       6.05979885      13.63000475      12.98858414       0.20679910      -0.48623277      -0.24379320      -1.20537064      -2.59645326      -0.68490785
I        3.32294801      14.00644916      20.08961492       0.14598017      -0.11784738      -0.25780462      -1.10434837       0.46814963       2.67743658
I       10.08984999      12.59287541      19.44596390      -0.56418882      -0.02683774       0.08190707       0.79807395       0.33764020       4.47027549
I        6.61075249       9.66526186      19.89517481       0.20023653       0.02776956      -0.10449707      -5.07995465      -1.57652443       3.27994926
I        7.03009443      16.41037123      19.12959271       0.04006436       0.02744546       0.10882663       1.49742854       0.17204514      -3.54524140
I        9.47365550      13.12989993      13.17105919       0.00934353      -0.01514996       0.11664097       2.41254313      -3.16244364      -0.17306727
I        3.54353718      13.76106604      26.14388477      -0.24739140      -0.09667620      -0.06114845       1.45093259      -1.18463891       3.46727169
I        6.77856305      16.26263890      26.71220687      -0.02231650      -0.05808586      -0.02110989      -0.64087525      -0.99689462       1.85696947
I        6.42065358       9.76307499      14.41460021       0.07917892      -0.14844612      -0.25554208       1.75845376       0.79872575      -0.64303635
I       13.57690673      13.62924286      22.96536165      -0.13590405      -0.07467298      -0.15094340       3.72854018      -1.79343586       2.06019404
I       -0.01125804      13.86904229      16.66413424      -0.00521679      -0.06244417      -0.08981316       1.49731737      -0.93036656       0.21323892
I        6.18056609      13.88868274      16.43009922       0.14725424      -0.04702022      -0.53815759       0.34477954       1.16838504       0.14513486
I        6.65164815      12.96740231      22.72051185       0.01649027       0.01567564       0.15435470      -0.91174066       5.15505504       1.18667774
N       16.91876270      15.49317337       3.50812343      -0.38258440       0.95498779      -0.42446893       0.44762769      -0.36109017      -0.29858129
C       17.78036558      16.43916139       4.19532563       1.53377422       1.05794189       0.15650082       0.32891536       0.30099488       0.27379870
H       18.45471170      15.92963168       4.92058965      -0.61882282       0.11718761      -0.12316479      -0.11971488       0.22075405       0.28124625
H       17.18765043      17.23806357       4.65556568      -0.14209577      -0.20104262       0.14158380       0.01008885      -0.02853504      -0.05825129
H       18.45767908      16.91245661       3.46698389      -0.21114258      -0.00690748      -0.13912524       0.03893550       0.35342416       0.07604072
C       15.99785682      16.10567899       2.51385500      -0.60063313      -0.98690654      -1.15601412      -0.47013220       0.59962765       1.19212383
H       15.34737605      16.79610889       3.01763350       0.16779893       1.14110705       0.41690376       0.14907464      -0.11788216      -0.28608096
H       15.19890324      15.40403506       2.11936286       1.28432127      -0.00513636       0.19852167       0.04708299      -0.00230048       0.08980114
H       16.62489044      16.50807577       1.69302095      -0.46258782       0.12086177       0.30814631       0.28322282      -0.24080886      -0.30859207
H       16.36152977      15.08554433       4.21460049      -1.07272809      -1.18238686       1.19847099      -0.25199676      -0.12893789      -0.22656679
H       17.51444902      14.77874172       3.12232935       0.48876009      -1.12757203      -0.69421027       0.07853426      -0.14533878       0.12616642
Cs       9.94992178      22.26039154       9.46731664       0.00993192       0.09659240       0.05996065      -0.85449537       0.96688686      -1.40265441
N        9.59219165      15.79664424      10.11396218      -1.04960099       1.01274769      -1.77824981       0.17780675       0.51670957      -0.83388089
C        9.45779339      16.40510636       8.69317310       0.21616664      -1.88843384      -0.56302053       0.19481631      -0.30142999       1.16056633
H       10.40465422      16.74325203       8.28435397       0.60832473       0.25486110       0.53924935       0.02280486      -0.21864170       0.08481080
H        8.79202017      17.24954262       8.78018692      -0.60774411       0.12703347      -0.20441880      -0.05853990       0.01610736       0.13412006
H        9.18960948      15.57071930       7.91813636      -0.19431268       1.31190239       1.54154618       0.12245775       0.11615972       0.01281513
C        9.92033905      16.77977804      11.19054999       2.00306595      -2.89622448       0.47222340      -0.89392643      -0.30247625      -0.34019854
H       11.04490488      16.78509816      11.26693469      -0.84375974       0.55092985      -0.35835627       0.09265982      -0.29039861       0.22451992
H        9.61120388      16.30995420      12.12847366      -0.39856109       0.31862329       0.12246275       0.00331711       0.07470587       0.01928218
H        9.47879730      17.69012886      10.96758139      -0.84095470       1.85954570      -0.33836602      -0.28727335       0.01154985       0.41108352
H       10.29976890      15.09074669      10.04776786       1.21974846      -0.98764970       0.05669792       0.20412380      -0.15618170      -0.16826179
H        8.71874783      15.27882490      10.27325640      -0.21123377       0.20250974       0.35557828      -0.03550652       0.12299568       0.25256021
N       16.51392367      22.57633186       3.31260859       0.92846841      -1.02223643       1.22281260      -0.36037599      -0.43631001       0.70385893
C       15.86820952      22.95691801       4.61632882      -0.26554019       0.72846147      -1.41477411       0.30499820      -0.89672967       0.85620603
H       15.83254361      24.05179509       4.67224527      -0.41666253      -0.01251629      -0.17224811      -0.05064264      -0.11699494       0.29421353
H       16.49783037      22.65488290       5.40738370       0.74783046      -0.73037858       1.06198624      -0.02198708      -0.10634640       0.13181952
H       14.88909098      22.46675278       4.61396045       0.04451097       0.12850197       0.28788122       0.01142065      -0.19549632      -0.22106237
C       15.62110239      22.60004126       2.18073168      -1.20994115       0.49530874      -0.91074690      -0.01851367       0.63857895      -0.13680863
H       15.36697743      23.65726838       1.83194535      -0.26896788      -1.00793699       1.04539036      -0.01323130      -0.14570699       0.41004719
H       14.80416573      21.86979602       2.46472781       0.30773720       1.00556277      -0.72102446      -0.02214677       0.27845830       0.03085476
H       16.17945499      22.25036020       1.32819078       0.22984506      -0.69202947      -0.50237393      -0.00701985      -0.02057619       0.07711685
H       16.87884932      21.56963466       3.42250184      -0.00655255       0.96309278      -0.16776246      -0.09049362      -0.13717880       0.01099589
H       17.35554625      23.13627122       3.10495943       0.10388204       0.19414718       0.27413477      -0.07307973      -0.10568252       0.20639008
Pb       6.36327094      19.83454689       6.63128632       0.21601482      -0.16059213      -0.60418651       0.46521028      -0.08146281       0.15375627
Pb      13.14415847      19.28415383       6.99569678      -0.01048530       0.03516136       0.01588438      -2.95634746      -1.82257068      -4.10078600
Pb       6.45131024      19.56664107      -0.37683257       0.20106970      -0.11779069       0.19631141       2.31509505      -2.90351572      -1.85936198
Pb      12.79394891      19.76649330      -0.16072872       0.23537052      -0.13956210       0.13648456       0.77782848      -0.80288426       2.95285437
I        9.63867683      19.87960232       6.51462797       0.17086742       0.00343263       0.11204190      -1.57565604       2.05133699      -1.33549819
I       16.26478897      18.71758870       7.25001653      -0.12578603       0.06430602       0.01014688      -1.24027765       0.66073171      -0.20254049
I       12.83430218      16.05655535       6.05772557       0.05243017       0.35310052       0.05125753      -3.05850762       0.24000004       1.98740785
I       13.25252942      22.68613260       7.50078240      -0.14181599      -0.14741315      -0.14166499       0.81989946       1.43269728       1.45060226
I       16.09069727      19.57624306      -0.45618489       0.08967792      -0.01325067      -0.07192232      -1.65997067       1.50952844       2.13062465
I        9.59778871      20.43535190      12.95327974       0.10198594      -0.08834699      -0.13965220       1.05161247       1.07268245      -1.28771773
I       13.37736551      22.98481180      13.74915688      -0.07856854       0.03654291       0.31488621       2.23238603       1.30960807       1.37965256
I       13.03890026      16.30824582      -0.40133019      -0.06508431       0.06455915       0.05855029      -0.92758938       1.30141049       1.76879792
I       19.39905539      18.91098914      10.13432312      -0.04460526       0.01176689       0.00928554       0.01399325      -0.00781777      -0.01315998
I        7.19488323      19.54278407       2.99646399      -0.16588921       0.22382088      -0.10618866       0.55020493       1.54183692      -3.07325750
I       13.50214839      19.41665525       3.10244075      -0.15079458       0.11290133       0.02520730      -2.34249735       0.49787279       0.35671914
I       13.11039148      18.82561763      10.17128258       0.01187352       0.03201864      -0.29706789       0.19498493       0.97138589      -2.38280672
Cs      15.93135706      16.23181407      16.64645045      -0.03431984       0.06483653      -0.14856347      -0.18294396       0.53317584      -1.24157075
Cs      10.01886362      22.59445857      22.98380196      -0.03552836       0.14778582       0.18895493      -0.16947487       2.93926717       1.92927806
N       10.30164067      16.64536053      23.23186546       0.81493912      -0.02711317      -0.63874255       0.09044518       0.65702073      -0.94243058
C        9.50408320      16.35857495      24.45442334      -0.43231158      -1.19605989      -0.16057790       0.46704604      -1.05470128       0.39198408
H        8.46278600      16.70255196      24.40217457       0.06588384       0.18571190      -0.61370600       0.04819877      -0.05616936      -0.18202888
H        9.96611198      16.92573159      25.21991455       0.54287352       0.40371973       1.21006969      -0.05604018       0.04564878      -0.14014270
H        9.46446157      15.27150715      24.71852894       0.38929743       0.64740853      -0.46196089       0.01844249       0.08625536      -0.18904608
C        9.70494388      16.27051417      21.93934824      -1.18197146       0.74475881      -1.12282608       1.57795789      -0.44490545       0.63833638
H        9.21373211      15.35014041      22.15745558      -0.31685113      -1.09998163      -0.31561081       0.29368063      -0.02983134       0.13117681
H       10.41078437      16.21288633      21.06724542      -0.26086902      -0.03060357       1.00196610      -0.24404232       0.03389930      -0.13363860
H        8.88684831      17.00161147      21.68340889       0.68717385      -0.37431586       0.19858902      -0.17025898       0.20867854      -0.10044494
H       11.20839574      16.11576393      23.23224409      -0.31874985       0.67917963       0.59728961      -0.41539025       0.03358512      -0.20449840
H       10.48049164      17.66454045      23.19249704       0.51005993      -0.16052501       0.18230351       0.07349859       0.10775717      -0.03425944
Cs      16.34553689      23.13088387      16.64321301      -0.08767339      -0.02422120      -0.12453539       0.88788550       2.11674190      -0.01089929
Pb       6.51641725      19.45890121      19.60719035       0.03709667       0.05371123      -0.03937244       2.90320597      -0.01761692      -1.58677138
Pb      13.34053137      20.28354643      19.86973457      -0.24243346      -0.51451749      -0.12609281       2.05504459       0.36956409      -1.59805854
Pb       6.51999682      19.81588999      12.67018800      -0.03955663      -0.02551364       0.36066739       2.53359114       1.45123243       2.10452309
Pb      13.09366608      19.55511161      13.45355333       0.05243091       0.06862338      -0.01383810      -3.81894054       1.12203374       1.14749112
I        9.55871473      20.36534886      20.23054785       0.15308022      -0.03417527      -0.39544679      -0.20237942       3.12209109       1.16181468
I       16.33099577      19.30522578      19.09445022      -0.20586874       0.07610536       0.08741804      -1.79775471      -0.43065266       3.91239990
I       12.66114837      15.93940183      18.65254005      -0.07622095       0.24382535       0.08385798       1.53671278      -0.22438888       1.22864121
I       13.90552483      23.02485143      20.58828304      -0.00861781       0.04935990      -0.02611525      -1.16928949       1.18579818      -0.49357692
I       16.28388850      19.18462956      14.10555503      -0.08237526      -0.11582227      -0.12101444       0.06231948       1.73575140      -0.26413131
I        9.75660504      19.89263436      26.13094044       0.08407441       0.00998860      -0.07667321       1.39581590      -1.78713836       2.02663907
I       12.84600966      22.80782374      25.67029208       0.05084139      -0.00907649       0.08385439      -1.11227023      -0.36521679       2.14280845
I       12.33117077      16.49894630      13.87535051       0.34405472      -0.24267409      -0.01299314      -3.99660366       2.20978818      -0.45155480
I       19.20226237      19.65356220      23.25961438      -0.07666901      -0.16350907      -0.42880843      -2.19578124       1.96516931       0.52407633
I        6.40327252      19.39221143      16.25185653       0.10759585       0.11119927       0.01985974      -0.79837734       2.94346901       0.77475394
I       12.40413014      19.48797920      16.42446184       0.05485358       0.05594082       0.32106384      -0.24020825      -2.03336056       0.04821798
I       12.87730736      19.47584205      22.81918695       0.05841242      -0.00707749      -0.04360661       0.07113547       0.16403019      -0.88935486
N       10.19073298      24.21845805       3.40228525       0.27345709      -0.32860699      -1.46295926       0.70054439      -0.58262024       0.41839204
C       11.09426988      23.00004219       3.52001771      -0.22456228       1.43705154       0.01578540       0.18572146      -0.58325932      -0.13472480
H       11.78639809      22.98329155       2.65257968       0.01257399       0.17767513       0.62195725      -0.16723242      -0.10493112      -0.27401139
H       10.45582619      22.15331948       3.41290818      -0.47877999      -0.96075161       0.43458599       0.21540619      -0.02878627      -0.41398565
H       11.50574733      23.19480434       4.52060930       0.61843797      -0.89248079      -0.29815215      -0.05896964      -0.12029337       0.19336238
C        9.03603885      23.98557865       2.45879495       0.41340464       1.37573347       1.29541109       0.54227378       0.27477157       0.19763968
H        9.37728369      23.59226594       1.52711934       0.34675228      -0.42709069      -0.74357285       0.01458852       0.19976255       0.08109929
H        8.50949455      24.93589001       2.35999919       0.08939537       0.22025072      -0.25213970       0.20358197      -0.20342943      -0.04343164
H        8.36004674      23.34887813       2.98481971      -0.49615923      -0.98299791       0.25113750       0.09327488      -0.10141405      -0.40632945
H       10.85110824      24.96328195       3.07980646      -0.46667624       0.18234145       0.04363017      -0.25866447      -0.07560402      -0.01846279
H        9.82689137      24.51235660       4.32557171       0.02214566       0.00135753       0.33941456       0.21681123      -0.21083980       0.00480391
N        3.29110884       3.60740600       9.49516438       0.04136473       2.01172341       0.39703951      -0.11259395      -0.12090059       0.17781017
C        4.42797990       3.61488112      10.45106857       1.37144257       0.10050222      -1.56193136       0.72648697       0.42259779      -0.17208776
H        4.76622483       2.60357477      10.59724115      -0.19290628      -0.74383692       0.53690162       0.12414271       0.05635401      -0.32630293
H        4.15123088       4.12094077      11.36095338      -0.14631349       0.16544444       0.35885474      -0.03908165       0.09175842       0.43527334
H        5.32980005       4.09858766       9.99098185      -0.73745273       0.08821038       0.20937243      -0.18899831       0.24244589       0.05493878
C        2.04660477       3.75822109      10.25916508      -0.64894184      -0.32414869      -0.78797767       0.47029457      -1.01906805      -0.24528089
H        1.99372066       2.94506562      10.96922900      -0.40616277      -0.42748383       0.11402374      -0.03999661       0.14196764      -0.04326203
H        1.20936526       3.89814770       9.55974857      -0.00642617      -0.59042718       0.12618553      -0.15207260      -0.07371977      -0.16620386
H        2.10127059       4.68346816      10.77316419       0.20524728       1.08408312       0.84652484      -0.16427857      -0.34242272       0.00730789
H        3.24422836       2.78238574       8.91229688       0.19994018      -0.62506578      -0.46887274       0.12571230       0.51039549       0.19063109
H        3.31416242       4.50123401       8.86024573       0.29987806      -0.90189309       0.17688346      -0.12676243      -0.15174384      -0.00369440
Cs       3.38381538      23.52817371       9.46050432      -0.10574467      -0.14292377       0.11147030       3.41674843      -2.86625312       3.19971090
N       10.29085516       3.31685303       2.87112362       3.13390058       0.35108151      -0.45589517       0.67753011      -0.24956985       0.64519098
C        9.11605896       4.20813657       2.95128972      -0.15793312       0.14026361       0.66545569       0.75957662       0.68088564       0.40772083
H        8.34713550       3.57702294       3.43419989      -0.15907585       0.35452903      -0.21641351       0.18188755       0.19268902       0.16563273
H        8.84098465       4.45486090       1.90278084      -0.04593095       0.31209134       0.68244375      -0.05746261       0.05353709      -0.23391439
H        9.35286020       5.09571647       3.64979770      -0.26301425      -1.03112358      -1.18974495       0.10349180      -0.10191084      -0.32233083
C       10.76300497       2.73979307       4.15182322      -0.86295254       0.15549795       2.24996557       0.91463787      -0.29267432       0.01236199