640
Lattice="26.321534792642353 -0.09006580149878535 -0.0684033844912995 -0.05323590665934717 26.033574531972604 0.019182568535640335 -0.019639795845923753 0.03214912166208628 26.137227889033625" Properties=species:S:1:pos:R:3:forces:R:3:momenta:R:3 energy=-2586.544189453125 stress="0.0013173912884667516 -3.687620846903883e-05 -0.00016204862913582474 -3.687620846903883e-05 -2.8568920242832974e-06 -2.3131304260459732e-05 -0.00016204862913582474 -2.3131304260459732e-05 7.937274494906887e-05" pbc="T T T"
N       10.01273766      11.03509718       4.20333597      -0.46055286       0.26261197      -1.37584199      -0.28583360      -0.42394299      -0.30375088
C        9.90607384       9.76628636       4.94187297       0.56941516       0.21953035       0.96695257       0.69805831      -0.69904838      -0.45281585
H        8.88033488       9.72919402       5.32422330       0.04677643      -0.37121351       0.07046688      -0.08241237      -0.00451795       0.14396083
H       10.64601483       9.86992456       5.76774592      -0.53675148      -0.41966848      -0.15658285       0.17971980      -0.31545366      -0.10296344
H       10.16333708       8.91886914       4.31047059      -0.05170017      -0.13883106      -0.22421210      -0.18540224       0.26892823       0.01504313
C        9.40934573      10.96177480       2.81797901      -1.02955382      -0.81413389      -0.63109194      -0.51021829      -0.19474195      -1.31032922
H        9.65555449       9.94183930       2.34406167      -0.18310293       1.35959742       0.75888039       0.02856796       0.08606429      -0.08005880
H        9.77996376      11.77249275       2.16852896       0.32024377      -0.17331509       0.27672203       0.14213048      -0.03251820      -0.01716771
H        8.28215210      11.08846876       2.81186959       0.96590309      -0.31232423       0.53270554       0.17786461       0.09820796      -0.18380406
H       11.01961084      11.27342895       4.03553061      -0.29579232       0.24145425       0.48763261      -0.04968423       0.02340314       0.10457469
H        9.53529209      11.74802947       4.84271151       0.81877008       0.06873668      -0.68275614      -0.24133044       0.06230517       0.14886439
Cs       3.46227623      16.47900043       9.92305284      -0.02814276       0.11184547       0.08711872      -1.17178520       2.34082507       0.99019681
Cs       2.98703512       9.02307016       9.80860859       0.10552204       0.06410297       0.09560153       2.77821591       0.30791974       3.40567644
N        9.24702399      16.36870197       4.86764248       0.47223676      -0.14791459      -0.35786527       0.19225547      -0.06049230       0.35012110
C        8.91942750      15.50476023       3.67257758      -0.43359140       0.15593815       0.13749849       0.46079093       0.66932597      -0.25508114
H        9.45671550      15.95938702       2.83526247      -0.08163564      -0.08461175      -0.22276518       0.29231415      -0.07872751       0.24329472
H        7.81837056      15.44023090       3.46451177       0.77400077       0.13213388       0.29778881       0.13184463      -0.10470433      -0.02717750
H        9.33742411      14.51131026       3.87297533      -0.04967715      -0.02644731      -0.00347148       0.22566253      -0.03301174       0.15229341
C       10.73717194      16.58068745       4.95206309      -0.14943158      -0.43387405       1.36116364      -0.26153357      -0.80237756       0.72612508
H       11.26834327      15.63655134       5.10518788      -0.32686499      -0.37471838      -0.08944467      -0.15999762      -0.05406004      -0.12310167
H       11.03921939      17.21000630       5.79103735      -0.40562937       0.26138741       0.29421917      -0.08388358       0.05698524       0.06434505
H       11.11975201      17.03580638       4.07903631       0.10917389       0.55463145      -1.43894226      -0.08671306       0.02187397      -0.04141558
H        8.86919467      15.94894841       5.73144140       0.01667902      -0.25574107       0.27495331       0.20887774      -0.14182077      -0.08528785
H        8.74725814      17.27135201       4.81176204       0.03416225       0.21450622      -0.29653597       0.34696919      -0.00926709      -0.27178139
Pb       0.00885619      12.51472130       6.91737057      -0.13070984      -0.02440640      -0.04136839      -0.80251492       1.05820720       0.29291736
Pb       5.92711664      12.87688685       7.10847698      -0.00265769      -0.00708454      -0.36813980      -1.28008415      -2.07432523      -0.46601413
Pb       0.68853709      12.51404541       0.17347719      -0.06594435       0.11169443       0.04561732       2.09310873       1.20435068       0.87271531
Pb       6.95094521      13.03166673       0.19673592      -0.17041752      -0.15471031      -0.21097126       3.03867292       4.67998380       2.46250408
I        2.98755403      13.12360961       7.94275041      -0.02480524       0.02878215      -0.04067366      -0.86055198      -3.58240207      -0.58341578
I       10.19671015      12.98303099       6.97869465      -0.06749622      -0.04102039       0.13789225       0.51035751       0.02076945       1.42273343
I        5.73177807       9.81144377       6.44685133      -0.02312079      -0.01519112       0.12564097       3.49819226       2.24622811       1.83112971
I        6.62438334      16.34911756       7.37461032       0.00702934      -0.40509946       0.04706151      -0.07361776      -0.22338643      -0.02205548
I       10.21987964      13.33290959      -0.19937702      -0.00428787       0.06482131      -0.05207548       0.31463978      -1.26426136       2.51130062
I        3.01122568      13.74028256      12.88936686       0.17298231      -0.12786578      -0.04655721      -2.34756665      -2.59191845      -1.10215284
I        6.60024995      16.10380078      13.05960554       0.20872509       0.01447580      -0.13781609       1.69462673       1.90281909      -2.07072445
I        6.28459945       9.58731389       0.50807416      -0.01158644      -0.06422350       0.09064802      -4.63730316       1.10489630      -2.32081070
I       13.84211678      12.42180518      10.34317425      -0.00034973      -0.11445896      -0.45315382       2.48245924      -1.58983645      -1.57869935
I        0.42330400      12.46813361       3.51963548       0.04869573       0.04221062       0.10518062       2.84528946      -2.38808568       0.00078758
I        5.42348161      12.82349464       3.73338547       0.08303843       0.05597624       0.09148905       1.88706805      -0.45417878       0.68460563
I        6.88934160      12.95043362      10.01777632      -0.03014176       0.03420324       0.04713810       1.52162028      -0.82238261      -1.85444264
Cs       9.83679806       9.50212364      16.72351464       0.01260498       0.16108985      -0.15231862      -1.14155205      -0.09478020       4.60532677
Cs       3.77126540      16.33887216      22.28873096      -0.10270776      -0.15465458       0.04617539       3.50275899       1.89815148      -0.68102758
N        4.35347396       8.55561946      22.43514180      -0.74861668      -0.82809676      -1.05137629       0.42209407       0.11010055      -0.09420998
C        4.68813982       9.75512755      23.16078952      -0.06782782       0.88627063       2.19048419       0.00672126       0.27192714       0.08990494
H        5.71025420       9.68692693      23.49794805       0.73763127       0.12899566      -0.22568050      -0.15849789      -0.27066899       0.02765501
H        4.14820597       9.82378222      24.15836729      -0.00150157      -0.27323864      -1.15470221      -0.09083227       0.05741026      -0.04783105
H        4.53572433      10.66119796      22.60495250      -0.24125778       0.40571811      -0.55412525      -0.03878757      -0.16348475      -0.32203491
C        2.86664355       8.22548172      22.47041231       0.28568165       0.70066232      -0.45691620       0.10813646      -0.37518241       0.12623488
H        2.48128693       8.18555374      23.48559720       0.27048422       0.11655461       0.41664366      -0.01197194      -0.04642581       0.10215041
H        2.83907088       7.25224271      22.04535556      -0.44571206      -1.08109677      -0.56034183       0.24793854      -0.00764374       0.27708275
H        2.21591148       8.90777624      21.86240921       0.93059954      -0.10916363       0.29861135      -0.43380232       0.26398608      -0.00078861
H        4.92145345       7.77685344      22.88037606      -0.30337177       0.08543640      -0.41373230      -0.07461020       0.29269381       0.24469698
H        4.69054425       8.58949379      21.39727178      -0.20917019       0.14198913       1.31631301       0.00400094      -0.02206925      -0.13775543
Cs       9.53294868      16.26667683      15.87157032      -0.00612063       0.00262097      -0.04010095       0.21503410       0.59828895       3.03572516
Pb       0.19300045      13.06040592      19.86292661       0.04814163       0.00399339       0.09295863       2.41727929      -2.24864015      -0.09690666
Pb       6.92475086      13.22086009      19.27991605      -0.21405770       0.12319634       0.49894785       0.82891526       2.24885792      -1.70950488
Pb      -0.17960808      12.63196855      13.14216856       0.17574680       0.08441842      -0.23638226       4.38467947      -1.23469897      -2.44993952
Pb       6.10742652      12.86375403      13.02477574      -0.02214708       0.10365092       0.12847386      -2.15154057      -0.61976938       0.72832303
I        3.54821090      13.08430692      19.86455601      -0.14107799       0.01742619      -0.00957560      -0.06272293      -3.72904113       0.87808425
I        9.94708979      12.81824218      19.46382817       0.11135962      -0.01887040      -0.10433640      -0.41881321       0.26461325      -2.69332954
I        6.79700645       9.51791448      19.90635611      -0.13548806       0.14368235      -0.12414610      -2.70794006       0.76973279      -1.17550957
I        7.53088602      16.38048202      19.84251717      -0.04503268      -0.23138768      -0.09876151       1.69147339       4.95900158      -0.85209998
I        9.59428428      12.40284002      13.43207397       0.01633907       0.02971138       0.00571981      -0.13194340      -1.51664176       2.86392534
I        3.69943271      13.07976749      26.12757821      -0.06198765      -0.03780546      -0.07374926      -3.92144949      -1.19432118       3.82521038
I        6.82705775      16.07505497      26.45433726       0.04116379       0.12122790      -0.08520925       1.29873760      -0.39709716       2.14867741
I        5.12784412       9.65049353      13.24834884       0.17430289       0.03940321      -0.09994013      -1.91140940      -2.42238926       0.26934574
I       13.13333714      12.96531908      22.76792410       0.07645643       0.17858478       0.00964681       1.55693071       0.80894489       2.87390256
I       -0.23077851      12.22050862      16.10190437       0.13823099      -0.00379597       0.56673727      -1.08640398      -1.90615827      -0.02814217
I        5.96523101      12.73955640      16.44845597       0.14235269      -0.26287103      -0.21022467      -0.43639573      -0.63870888       1.39320084
I        7.04919202      13.30268183      23.01908177      -0.02490378       0.02059412       0.12295005      -0.32359272      -1.29118879       0.34697945
N       15.25142184      17.05595433       3.48992526       2.97845348      -0.54822466       0.04262620       0.91830858      -0.46626943       0.14430757
C       14.90763978      15.89983429       4.30292398       1.08608207      -0.39345026       0.55427639      -0.20194106       0.38961197       0.75691864
H       14.47673932      15.13230225       3.69428667      -0.25459469      -0.52211470      -0.81176609      -0.03372954      -0.07579357      -0.05414620
H       14.15719766      16.13398262       5.05250084       0.21804354       0.21461668       0.52048359       0.14226745       0.11873958       0.05789082
H       15.89894375      15.53113906       4.67096406      -0.93939645       0.06945423       0.31297686       0.06011192       0.09133406       0.00309666
C       16.26967311      16.71096836       2.43764890       0.21587096      -0.89063461      -1.47418595       0.15222171       0.10316934      -0.14873738
H       15.85938504      15.85733492       1.83166867       0.19918092       0.62416347       0.40485373       0.24090329       0.08176727       0.00327721
H       17.29205234      16.35573311       2.82158602      -1.38446132       0.72099683       0.07810985      -0.25000573       0.05885681      -0.06465301
H       16.38146072      17.59482448       1.76289691       0.14647247      -0.50596213       0.42461155       0.06471486       0.05825626      -0.13267763
H       15.80006638      17.74884270       4.05328944      -0.53080132       0.14313375       0.52024313      -0.15905188      -0.14455963       0.22030270
H       14.46000947      17.52604550       3.11913212      -1.53269668       0.89237198      -0.80397095       0.16633433      -0.05181611       0.14615534
N        9.46852052      23.20600952       9.24083849      -0.38349212       2.08445399      -0.45487395       0.07355678       1.19907947      -0.86091037
C        8.34735836      23.59580753      10.18612316       0.80057474      -0.15312726      -0.74245533       0.06528100       1.25530506      -0.03382804
H        8.59469399      24.57509157      10.63976265      -0.17217353      -0.25705301      -0.28321905       0.01752739       0.24843759       0.14410248
H        8.37742672      22.82220728      10.92350053      -0.35238909      -0.55425915       0.86306317      -0.01118995      -0.24845989      -0.06505422
H        7.40959057      23.57654047       9.61928491      -0.03016497       0.21908164       0.09873555      -0.00904032       0.01527886      -0.07782819
C       10.74465799      22.98785535       9.87403584       1.47224160       0.83318771       2.13965740      -0.38173188       1.43872889      -0.35159778
H       11.36487463      22.30320021       9.31856801       0.39483039      -0.13301458      -0.47802577      -0.04310184      -0.15374554       0.07462022
H       10.64016976      22.59767311      10.89774119      -0.32920052      -0.21420039      -0.18548435      -0.04489038       0.11660778       0.25602909
H       11.23257845      24.01860383      10.03117570      -0.22066571      -1.33528101      -0.36791342       0.10800253      -0.00910503      -0.29201126
H        9.73051339      24.10375927       8.72609475      -1.09587291      -0.44346921      -0.75723310       0.28377128       0.12617477       0.19557600
H        9.19704994      22.48958148       8.54950855      -0.02617364      -0.18839463       0.12320072       0.16776263      -0.23355396      -0.10327421
Cs       9.66992848      16.98927371      10.07849167       0.01615398      -0.02618692       0.05799645      -3.38851619       2.12832457      -3.69797163
N       16.64612430      23.56660963       3.62225787      -0.51659929      -1.94305893      -0.51485598       0.52413889      -0.45434513      -0.11543122
C       17.18253483      22.15701198       3.56488294       2.00720676       0.79792491      -0.12554374       1.44412031       0.07889716       0.13727977
H       18.19231757      22.08160147       4.08424863      -1.12300318       0.28912503      -0.40616550      -0.04956550       0.03924344      -0.19724555
H       17.32456079      21.86449420       2.52837206      -0.01643129       0.14955200      -0.29656485      -0.08309646       0.00909158      -0.01714552
H       16.50587152      21.49598222       4.02189010      -1.12407765      -0.89326475       0.71367609       0.00647581       0.06041339      -0.09592943
C       15.65189383      23.79821121       2.51556203       0.89137614       0.84898766      -0.66867350       0.67584435      -0.55294488       0.32341128
H       16.14932473      23.88717683       1.51778164       0.29665356      -0.22600993       0.68065638      -0.09167796       0.02444470      -0.45998435
H       15.22067876      24.78680206       2.67705161      -0.55470128      -0.05733352       0.18946879       0.22955301      -0.14240703       0.07192261
H       14.96283229      22.97487530       2.40073933      -0.51874483      -0.30344973       0.55237797      -0.05304366       0.00017065       0.09458711
H       17.46620646      24.16774948       3.45911249       0.23238608       0.73668208       0.31459975       0.13306899      -0.20355004      -0.08494948
H       16.22578560      23.66246864       4.57827532       0.26095050       0.55906008      -0.49513111      -0.05729268      -0.15911134       0.09815916
Pb       6.54154751      19.23134585       6.60610854      -0.19617161       0.38807967       0.04018847      -3.76409534       1.26454930       3.11811551
Pb      13.40071082      19.41636451       6.79409992      -0.20805590       0.00458148       0.01784460      -2.85324129      -1.39767584       0.89526449
Pb       6.30934684      19.15767450      -0.08524837      -0.02721464       0.14239664       0.35481184       0.07163658       0.07620125       2.22452751
Pb      13.11079338      19.61480796       0.25218798      -0.09215217      -0.15894265      -0.05704079       0.13966371       2.29491170      -1.08622926
I        9.53474701      19.75866535       7.38848314       0.15402255       0.01391237      -0.09505012      -1.86861978       1.61625634       0.54447921
I       16.31762239      18.86195786       6.14024030       0.00105298      -0.02197577       0.32480742       1.44445731       1.56472288       2.14457605
I       13.34364367      15.77224203       7.88719318      -0.11586311       0.19355086       0.10232545      -2.36056154      -1.44745014       1.60422541
I       14.27388312      22.26149229       6.66876504      -0.17712168       0.34809491       0.21511007       0.75173776      -2.23292039      -0.62639666
I       16.17150917      20.15723971      -0.11536595      -0.03187946      -0.11988190      -0.03379142      -0.14170159       3.63133215       3.96721271
I        9.92829816      19.45917617      13.21972121      -0.39199644      -0.00068785       0.03395126      -1.71219928       1.95118625       0.49290282
I       13.49564295      22.59794428      13.77231885       0.04554343       0.15936186      -0.18843809       2.76496287      -0.95608126       0.96070935
I       12.49269231      16.56500232       0.97889916       0.08236575      -0.07325182      -0.24557717      -1.02190225      -0.14266251      -1.32039560
I       18.76433290      19.51880757      10.11510328       0.10711477      -0.19209247      -0.37723567      -0.75593163       0.73646952       0.25988887
I        6.92837394      19.14761487       3.40988074      -0.02723311       0.00792145       0.18102878      -2.29557651       0.83961900       2.90175218
I       13.14595315      19.92099721       3.47660048      -0.03151423      -0.01086328      -0.09398666      -0.78281172       1.68740773       0.23596970
I       13.24933414      19.25560207      10.30323842       0.09101600       0.15496375      -0.45337790      -2.37933938       1.35794334      -3.76976622
N       16.03262739      15.48558677      16.38808369      -0.86150797       0.64356191       1.62532080      -0.51048743      -0.14356585       0.08948994
C       16.30761381      16.90198270      16.21927297       0.98253959       2.30581205       0.93863499      -0.44487149      -0.84834063      -0.54680210
H       15.50398126      17.54861776      16.67309856       0.40812269      -0.81988037      -0.55713378      -0.02761862       0.03739083      -0.00388603
H       16.50995975      17.23108897      15.20804069      -0.31235476      -0.35133406      -0.68354002      -0.11385016      -0.18206448      -0.05288342
H       17.26363137      17.23986970      16.73463519      -0.84100958      -0.86570433      -0.07740390       0.18757693      -0.09409918       0.24456760
C       15.14455689      15.30323638      17.59383929       1.00087228       1.24800273       0.85732885       0.73581469      -0.46470454      -0.35583718
H       15.80204120      15.64153152      18.49140605      -1.30095231      -0.56912222      -1.17003628      -0.30714041      -0.07607993      -0.02736885
H       14.81408727      14.26477533      17.63864766       0.11784395      -0.17288835       0.17877110      -0.17162854      -0.03051786      -0.08088080
H       14.26482168      15.98609752      17.41865503       0.70496935      -0.51146437       0.41801228      -0.05605444      -0.08095353       0.04331239
H       16.89235627      14.97132352      16.44982056       1.03446643      -0.77563824       0.29794151      -0.07306954       0.09053610       0.07625631
H       15.52097227      15.03885492      15.66707439      -0.70199166      -0.33968232      -1.80296611       0.15187375      -0.23396954       0.02558843
Cs       9.62617441      22.91468136      23.43601451      -0.07561131      -0.04920815      -0.18654851       0.70805703      -0.54654674       0.53887823
Cs      10.09245878      15.94883253      22.98372671      -0.02842012       0.07679154      -0.03064405       0.71266345       5.08450666      -0.93554756
Cs      16.05676864      22.57617703      16.77754980      -0.18255652       0.00770193      -0.08986089       1.42449006       0.06421036      -2.12945755
Pb       6.61527224      20.24055706      19.91489465       0.24581545      -0.48288206      -0.04933467       2.66108460      -2.47038812      -1.30704152
Pb      13.00822516      19.63190848      19.91057603       0.01376046       0.14710658       0.13289279      -1.82417508       1.53884968       0.88003045
Pb       6.40563528      19.86551044      13.36557502      -0.01486856      -0.16230466      -0.03582030      -0.31531956      -0.36018119      -0.69687299
Pb      12.96070086      19.44177437      13.33876820       0.14942236      -0.05140670       0.20302933       2.50974147      -2.30683983       0.91728206
I        9.80183365      20.39932821      20.39710667       0.10523957       0.06327067       0.16740221      -4.61039206       1.52501770       1.22778850
I       16.26254601      19.23967987      20.23226841       0.11525457      -0.00241134      -0.15049946      -0.49527069       0.00484859       0.62079159
I       12.31208784      16.70712117      19.75217555      -0.12467849      -0.54226454      -0.05945195       3.07884140      -0.67223687      -0.16502436
I       13.57581393      22.99505480      19.89730639       0.00952574       0.08859321       0.06883778      -2.99727905      -0.93400184       1.51362075
I       16.44017772      19.29669831      13.35090575      -0.60640911       0.07678764      -0.00001431       0.87641913       2.44827673       0.73386893
I        9.28011051      19.89905636      25.73917482       0.38792000      -0.07355449      -0.12191816      -0.57311226       0.49293938       0.60227833
I       13.07040913      22.87386722      25.46947568       0.07073542      -0.44310754      -0.13720120       2.37057383      -1.98510125      -3.98317986
I       12.71260292      16.22322108      12.86329330      -0.11778370      -0.19837536       0.08311731      -2.76498743      -0.10186926       1.16942189
I       19.04002269      19.99874520      22.83802558       0.04200085       0.00866814      -0.11719310       1.37530822      -3.25094147       1.24318708
I        7.17324201      19.78730959      16.87991407      -0.02500404       0.01416554      -0.27163289      -0.10816189      -0.66076176       1.56338906
I       13.27738313      19.42374313      16.69685419      -0.05743054      -0.00408805       0.02710007       3.69749093      -0.62861911       1.07629272
I       13.21458676      18.41325417      22.96536041      -0.02088529       0.19207504       0.26659349       2.77264942       0.12346245      -0.97672128
N        8.81315863      22.33894917       3.56827855       0.34683889       0.99160278      -0.85321927       0.73810105       0.30493952      -0.37861173
C       10.00011246      21.73549483       2.87671294      -0.95304976       0.43438979       1.86409607       0.36645895       0.02515046       0.29105396
H        9.43251264      21.26014406       2.11625353       0.66211063      -1.50527725      -1.15851161      -0.02788650       0.23755946      -0.01947792
H       10.52195470      21.21336620       3.71149642      -0.02245377      -0.32119351      -1.16046765      -0.22664095       0.16631382      -0.21350773
H       10.56443639      22.56544556       2.50114176       0.65816848       0.35279821      -0.32558138       0.18147797       0.05934177       0.07896306
C        9.20201249      23.01161757       4.81307635      -2.32948166       0.72648503      -0.04933715       0.37220733      -0.16890036      -0.50655052
H        9.80463841      22.36205560       5.41556675       0.40532761      -0.32029896       0.50263475       0.07096657      -0.23656003      -0.16073291
H        8.17427435      23.20092853       5.23669750       1.21822660       0.23115606       0.44755748       0.23493621      -0.07905737       0.09751569
H        9.66545013      23.94740497       4.51409866       0.37804555       0.28010475       0.35231225      -0.12927301      -0.09197340       0.09442404
H        8.08364016      21.62672826       3.75647347      -0.08679264      -0.15959711      -0.24486606      -0.20169874      -0.04574296       0.00587506
H        8.44989754      23.07627446       2.90202872      -0.33365515      -0.59320210       0.65391494       0.25528047      -0.10715563      -0.06945542
Cs       2.91121671       3.35695722      10.16100940       0.04650540      -0.13366024      -0.20096312      -2.55311018      -0.29027261      -1.34383256
Cs       3.27243711      22.70422886       9.98244329      -0.03156141      -0.09529887      -0.04321794       1.72208415      -0.05690444      -1.60621339
Cs       9.83055256       2.82890548       3.85522358      -0.06188760       0.03738025      -0.06471093       1.41021902       4.44349974      -5.15071491
Pb      -0.04527564      -0.13460385       6.46100648       0.01373818       0.05017226      -0.04550719       0.40630571      -1.53627325       0.84545809
Pb       6.10451724       0.04329621       6.74368370       0.22592091      -0.04499948       0.01038008       2.73657028      -0.90255289      -1.48287747
Pb      -0.08562145       0.09485733       0.05129350      -0.02753229      -0.49046777       0.14110121       2.88080434      -4.73762799       1.12397948
Pb       6.13736539      -0.09158885      -0.19018354       0.44478581       0.01235784       0.08057033       2.42842868      -3.22997906       1.64837313
I        3.17904318       0.50004717       5.99991060      -0.12685917      -0.26964405       0.40811905       1.52929521      -3.54320027      -1.69625451
I        9.54100179      25.94161241       7.12371181       0.15535608       0.09089516      -0.12807246      -1.47536854      -1.02087974      -2.09443598
I        5.49019020      22.71372110       6.76051202       0.10258155       0.16552469       0.03597063      -1.06029997      -2.06895740       2.47083603
I        6.56149584       3.37444494       6.54899861      -0.05029164      -0.34213592      -0.08375690      -3.72789176       1.66256607       1.73608735
I       10.00613175      25.24126084       0.05760622      -0.26718920       0.17196879       0.01069970       0.25513058      -1.79205991      -1.59451564
I        2.96165167       0.63873212      13.00570215       0.34268055       0.05837226       0.00230823       0.34624724      -1.36803733      -1.86387154
I        6.30074196       3.51972344      13.49585198      -0.02868892      -0.07553858      -0.09042011      -0.08596994      -0.13323398      -4.50648254
I        6.30982424      22.70965521      -0.12398277      -0.00033145      -0.09313842      -0.09577160       0.31124043       1.68529583      -1.32408458
I       13.68257264       0.31294389       9.81809018       0.08753511      -0.22340459      -0.17676988      -1.82837300       0.05277894      -0.05879491
I        0.06549013      25.50417841       3.24851526      -0.14660894       0.06401533      -0.13119134      -0.92358195      -1.91176977      -4.80978148
I        7.21783234      -0.29231739       2.91686773       0.00167916       0.01688417       0.22030392       4.85773288      -0.82203205       2.74727701
I        5.60745877      26.51343418       9.87509810      -0.13636315      -0.11794446      -0.18463903      -0.67183823      -0.07289417       3.01199077
N       10.81884302      23.84160269      16.20646546       1.16039496      -0.67954441      -1.88796490      -0.83670781      -0.05889298      -1.00507008
C        9.57258130      23.60129899      15.43568458      -1.50087917      -0.56310338       0.42136830      -0.47197951      -0.41048125       0.25082101
H        8.89035889      22.99151978      16.10438635       0.59299292       0.51488902      -0.71395840       0.01714318       0.08303016      -0.09058931
H        9.80649629      23.02134188      14.52116477      -0.04135609       0.13403648       0.34902674       0.05119573       0.09145599       0.09513050
H        9.04498839      24.54281496      15.14657513       0.51380986      -0.38071025       0.22839419      -0.33632123      -0.14910572      -0.23584865
C       11.24014534      22.60109041      16.98863355      -0.83147553       2.49781667       0.92189812      -1.12662405      -0.30857982      -0.15737638
H       12.30265064      22.55935974      17.17018941       0.51701914       0.17088729       0.06940910       0.01553037      -0.09439117      -0.22192447
H       10.87763018      21.72341884      16.55459459      -0.57016254      -1.32912095      -1.24618576      -0.18842920       0.14319826      -0.02680434
H       10.64373317      22.77781415      17.88979299       0.37430394      -0.57442624       0.49123134      -0.03763432      -0.00612419       0.02299684