800
Lattice="26.470405333065738 -0.22335140898533476 -0.0832363603885908 -0.08588884377317443 26.676637054783058 -0.04350840935806965 -0.11984866817225417 -0.06572282404274751 26.670820374955966" Properties=species:S:1:pos:R:3:forces:R:3:momenta:R:3 energy=-3426.29052734375 stress="0.0017314285505563023 0.0004709041095338762 -1.737354432407301e-05 0.0004709041095338762 0.0021124891936779022 -4.419414108269848e-05 -1.737354432407301e-05 -4.419414108269848e-05 0.0008363227243535222" pbc="T T T"
N       10.24824556       9.59447135       3.06662068       0.78315222       0.79863963      -0.31481016       0.48633992       0.55469546      -0.88444651
C        9.12496324      10.48290909       2.54701889       1.69171967       0.26599481      -0.89293402      -1.09905807       0.07663816      -0.04494793
H        8.61587949      10.84661212       3.40093330      -0.93163857       0.28040869       0.97489875      -0.21231496      -0.08280326      -0.05864024
H        8.51329359       9.91242394       1.84970871      -0.23843813      -0.13637781       0.08863413      -0.01763968      -0.29003440       0.00808899
H        9.56483718      11.37733197       1.99022784      -0.17460279      -1.02718084       0.62928196       0.00757802       0.16557277      -0.04639421
C       11.21656106      10.23937098       4.06317182      -2.88006162       1.37446964      -0.01806277      -0.45659582       0.20650399      -0.67330342
H       11.37659291      11.24740946       3.68090928       0.07804231       0.25626231      -0.02058990      -0.04310459       0.11762496       0.01828387
H       12.14010845       9.75412838       4.07704841       1.43314339      -1.21151359       0.19433631      -0.01959467       0.19559500       0.18073264
H       10.69069600      10.31941612       5.05439991       0.57295691      -0.23941270      -0.71075711       0.02554682      -0.04010148       0.13449513
H       10.79889312       9.26758469       2.26603777       0.33669493       0.14778825      -0.43061553       0.17018052       0.19996561       0.08144278
H        9.93732119       8.71613142       3.45393369      -0.76143271      -0.72521790       0.55244133      -0.06329870       0.20197174       0.12950594
N        3.16550308      16.39226198      10.82815300       1.37727104       0.00889295      -0.04155355      -0.29744360       0.51976474      -0.09632762
C        2.99972761      17.69751343      10.17272702       0.19034417       0.27082084       0.11184835      -0.57431771       0.03052196       0.16195697
H        4.01538986      17.93769720       9.76989221      -0.92508236       0.13563686      -0.43493128       0.12936437       0.04461438      -0.09189295
H        2.77891896      18.43369060      10.94793253      -0.18595685       0.18341799      -0.01989877      -0.24575291      -0.01127750      -0.19149577
H        2.13264353      17.57831296       9.46689655       0.92898285       0.46054726       0.22399968      -0.13121605       0.04805860       0.24777895
C        3.38113730      15.37243798       9.77370472       0.46032701      -0.95312830       1.33807628       0.10563793       1.06914438       0.02036956
H        2.46299450      15.11535956       9.26994359      -0.49670983       0.30599698      -0.54620038       0.01585626       0.17200615      -0.25538554
H        3.65423220      14.46478568      10.34385450       0.29073884       0.05722497      -0.49037482       0.15078354       0.05313859       0.08223125
H        4.19737103      15.74757626       9.13551776      -0.27265852      -0.31719142      -0.07240085       0.09362274       0.19947835       0.21094983
H        2.40455653      16.22894033      11.48552349      -1.12797728      -0.50318994       0.20108112       0.12559178      -0.17778075       0.13634856
H        4.00957530      16.34802210      11.46498376      -0.22806616       0.36361999      -0.24104462      -0.19851390      -0.21935440       0.29449665
Cs       3.20758942       9.71259026       9.96174385      -0.16660243       0.14005454       0.04204486       0.62867510       0.46200192      -0.39994603
N       10.65900696      15.94091100       3.21362276      -0.38297677       0.89607554       0.23151066       0.40854248       0.33759508       0.55553422
C       11.34752925      17.10012132       2.52553300       0.94495185      -0.23611419      -0.55885535       0.68213274      -0.25536156      -0.79337941
H       12.19068629      16.74852005       1.91389625      -0.19454131      -0.55570339       0.00337926       0.06512139      -0.01221779       0.00643145
H       11.86150101      17.73143261       3.24153671      -0.31651472       0.25811809       0.67887806       0.14297744      -0.08763903       0.09608222
H       10.78563475      17.72876227       1.81601010      -0.77862795      -0.38343587       0.52564605      -0.08416892      -0.00933498       0.03151702
C        9.58147812      16.30833932       4.27337201       1.74970725      -0.38330048      -0.49345365      -0.64149589      -0.75139669      -0.41806274
H        8.81048439      16.92202906       3.80747394      -0.25676490      -0.38615799      -0.10577048      -0.13303279       0.17145638      -0.25016555
H       10.15989705      16.93338921       4.95558209      -0.14682076       0.15116244       0.30601106      -0.19322523      -0.07725597      -0.08546386
H        9.33243740      15.35917573       4.78671745      -0.39455540       0.53679319      -0.31903408       0.03707084       0.12374407      -0.04960863
H       11.38109036      15.34972365       3.69074794       0.32644169       0.20811947       0.11957651       0.00224503       0.14144541       0.21899213
H       10.31491120      15.29637225       2.50679325      -0.63615416      -0.20491921      -0.54391719       0.13939102      -0.08548521      -0.03965992
Pb       0.11061511      13.58017343       6.73757397      -0.02720913      -0.22462197       0.02903547      -0.37031475      -1.70708887      -0.50937960
Pb       6.62173292      13.42449445       6.56945372      -0.04679266       0.22605713       0.04400996       1.17194939      -3.43599348      -2.84155059
Pb       0.79533008      13.87257287      -0.24906210      -0.07597983      -0.10515291       0.11059245      -4.63444744       3.15272039       0.31765069
Pb       7.10151249      13.43942638      -0.15391120      -0.21298421      -0.03515587      -0.02775219      -1.82728279       1.55026825       3.24464666
I        3.44113214      13.22255614       5.96879760      -0.12390407       0.14637235       0.21539227      -1.02865853       1.08589618       0.74757239
I        9.86902351      13.14795665       7.22307368       0.21947731       0.09095597      -0.08435282       0.28221738      -2.28716091      -1.24434214
I        6.97969239      10.33385941       6.38006662      -0.00117603      -0.10945283      -0.13525916      -1.33972046       0.12275085      -0.53428947
I        6.07849888      16.83480469       6.83380337       0.06836911      -0.09156936       0.06805294      -1.09217119       0.02200372      -0.33174290
I       10.22387865      13.13224016       0.07401102       0.06236112       0.19296516      -0.09380080      -0.20790629       2.90255865       1.43256436
I        2.86689321      12.89934410      13.25777202       0.05598603       0.00218643      -0.08191065       1.03542218      -0.18905662      -0.72380609
I        5.50786784      16.05780099      13.65110708       0.17362292       0.17496767      -0.09726113      -0.90339651       3.79400540      -1.08152604
I        6.15671600       9.57373768      -0.83023623       0.01898250      -0.13122446       0.12244954      -1.66347534       0.09997426       1.71366718
I       13.79444807      13.76680181      10.22293064       0.02985648      -0.00609697      -0.35992392       0.97106102      -3.22641680       4.29152862
I        0.80467149      13.85044298       2.87118431      -0.08329285       0.04570992       0.10864797       2.29022975      -3.60087822      -1.34823330
I        6.63512592      14.03194282       3.43567240       0.13061654       0.01523763      -0.04297804      -0.48368423       0.84183172       2.82279855
I        6.58332065      12.52075836       9.80755915      -0.17992565       0.09124131       0.13227372       2.70807830       0.38468938      -1.45786902
N        9.80203555      10.14871623      16.01085833      -0.15085247      -1.26717637       0.64057958       0.49696662      -0.30046157       0.50442162
C       10.98811227      10.32482250      16.89275542      -0.74388261       0.37795295       0.87527429      -0.18647448       0.63919273       0.38574835
H       11.82690413       9.83262721      16.47977143       1.03034602      -0.55299432      -0.86369848      -0.05426418      -0.36362465       0.23135322
H       10.87098395       9.93053597      17.90075970      -0.66116561      -0.45039715       0.13022344      -0.15503665       0.05338075       0.11231798
H       11.18714260      11.38900266      17.03885175       0.03252078       0.17502087      -0.31749143       0.12647005       0.18927069      -0.10875719
C        9.25425556       8.74694904      15.78537456       0.08486569       0.36693904       1.35965154       0.02544775      -0.79461517      -0.62921282
H        8.23479064       8.83163303      15.29512777       1.27339246      -0.37060901       0.31613840       0.03293157       0.02384938      -0.12462949
H        9.24358587       8.25346265      16.78528071      -0.69279860       0.52431311      -0.22834292       0.20482719       0.04589895      -0.18596950
H       10.05320863       8.17981378      15.33635225       0.10192806      -0.18309005      -1.19864847       0.23257466       0.04000628       0.07404726
H       10.03076279      10.57608741      15.12959627       0.22707461       0.46921204      -1.31515300       0.11946684      -0.11228621       0.17472225
H        9.00250837      10.68123406      16.34273830      -0.54959591       0.79958949       0.61890825      -0.04796040      -0.14590152       0.04132902
N        4.08886780      17.30983433      23.16742109       0.37794915      -0.69461197       0.57097721       0.81618997       0.94669723       1.05735958
C        2.66384901      17.47678361      22.90703312      -1.11119338      -0.22258025      -0.64528372       0.45492706      -0.34938045       0.34419117
H        2.14099850      17.33411751      23.85386687      -0.20931678       0.20157528       0.09891966       0.02189319       0.11066129       0.01020448
H        2.29049507      16.68966262      22.18538031       0.49301603       0.63987865       0.55869300       0.18916230      -0.03362477      -0.30492717
H        2.52813781      18.47769575      22.46404423      -0.23958767      -0.24153817       0.18067805      -0.27770665      -0.04281797      -0.17554483
C        4.39527778      16.05062320      23.97151788      -0.41821754       0.01548743      -1.98269045       0.12980537      -0.54474201      -0.13239650
H        4.61120575      16.40910744      24.94769138       0.45505067      -0.04646915       1.09195738       0.05776978      -0.06227428      -0.19830181
H        5.19961431      15.50483118      23.44599203      -0.02434032       0.28016292       0.46691880       0.05813046       0.04435016      -0.08336700
H        3.49155450      15.41118317      23.96112576       0.23775985       0.35347527       0.01593699       0.18796706       0.12986071       0.06422728
H        4.49909511      18.12563431      23.65324074      -0.12798329       0.28650238       0.16278810       0.09301574      -0.20778592       0.38618761
H        4.54821711      17.34556065      22.26109706       0.61165073      -0.42815099      -0.65828657      -0.14153538      -0.04315737      -0.20572060
Cs       2.95126375       9.81984620      23.46699469       0.14484469      -0.05201695      -0.06511154      -2.34144354       1.19098256      -1.53835754
N        9.00092213      17.71088895      16.93275639       0.34935580       1.36505723      -0.62067479      -0.18632905       0.06158063      -0.30002212
C        9.38767013      18.02479212      15.48605182       0.74307182      -0.93198827       1.19073629      -0.81017714      -0.87188604       0.30827241
H        8.49774018      17.79579469      14.91213204      -0.27718642       0.32825145      -0.47572008       0.10959843       0.22032464       0.06799231
H       10.16955984      17.28883267      15.21637068      -0.09622778       0.39724692       0.00000753       0.08415233      -0.05031673       0.01433267
H        9.76316578      19.06763212      15.47011493      -0.30287100      -0.44463654      -0.30489272      -0.28796971      -0.10024163      -0.19437304
C        8.67493378      16.30744044      17.24939257       0.40181264       0.23482751       0.07208347      -0.36598529       0.27189131       0.22354178
H        7.83668536      16.02932696      16.57691086       0.34459667      -0.28953176       0.43954606      -0.03851445       0.18392709       0.06132939
H        8.39868275      16.33103740      18.35738386       0.26821021      -0.59704005      -1.23087995       0.09944499      -0.16020559      -0.08586834
H        9.65344691      15.77323507      17.00044665      -1.39380237      -0.00419237       0.49592136       0.11540092      -0.01376864      -0.16663217
H        8.32518978      18.46875755      17.15720266      -0.89922684      -0.33590679       0.10761757       0.10169690       0.23139445       0.23698844
H        9.73662168      17.97234296      17.57773805       0.97567688       0.25496984       0.13920798      -0.05930236      -0.21794636       0.13551393
Pb      -0.07258649      13.24814926      20.13596737      -0.03162536      -0.10604237      -0.10344579       1.15833423      -2.12228947      -0.61089756
Pb       6.49299700      13.14375734      19.94118133       0.09212723      -0.05877913       0.02521565       0.05082637      -4.60491626       0.73351943
Pb      -0.25997768      13.16400191      13.71921299       0.17628473       0.03596762      -0.26838383       0.26622982       2.70990949      -0.68845927
Pb       6.69280633      12.92096208      13.23744853      -0.24382686       0.02587224       0.09864051      -0.78273896       0.71214927      -2.57287558
I        3.42941418      13.52509541      20.07240111      -0.29822080       0.14672669       0.03252066      -1.43545035      -0.53071574      -2.56737829
I        9.68322152      13.08139302      19.53663890       0.25862389      -0.02042305       0.17092508       1.30366651       1.83029343      -0.03469250
I        6.01798169       9.81656027      19.77366172       0.04170836      -0.08761932       0.10711163      -0.92288510       2.35964344       2.94767494
I        6.57353612      16.46616137      20.36819808      -0.05602505       0.03116848       0.08348655       2.35842119      -1.22092075      -1.10857992
I        9.63267803      12.31820392      13.10094526       0.20814562       0.28281639      -0.02349708       0.21691713       2.00394134       0.53967770
I        3.77078749      13.57610616      26.41266656      -0.24647152       0.09302569       0.08583499      -0.20148363      -1.00833487       0.77854275
I        7.17648334      16.46859267      26.89172675       0.04471421       0.16640184      -0.16687666      -0.95445767      -0.19362659      -0.18684110
I        5.90594148       9.94124409      12.89396517       0.10832939      -0.02983026       0.07980697       1.47036598       2.00849734       2.06574272
I       13.07020497      12.81488284      23.19591722      -0.09394849       0.04773366      -0.08422201      -1.99130294      -0.17241141      -0.14783900
I       -0.20692542      13.52635385      16.72257484      -0.05007417      -0.08565696       0.25505911       2.47612022       0.51946496       1.11455434
I        7.13073210      12.54656985      16.63214835      -0.22130981       0.10528139      -0.14240167       3.15180202       1.18754335       0.05475115
I        6.38846740      12.37385285      23.41551860       0.11187941       0.19498243      -0.13650417      -1.22944360       0.47963980       1.54141497
N       16.88114473      16.88283861       1.90337696      -1.47831009      -0.56097968      -1.98680923      -1.03964222       0.74452782      -0.36717918
C       17.73990158      16.17173335       2.89078114      -2.40795891       1.04535520       2.16259849      -0.61962371       0.84915982      -0.70623817
H       17.06254996      15.53887441       3.56441526       0.67854944       0.22353735      -1.27176064       0.03245110      -0.13340762       0.03583596
H       18.03085629      16.95182935       3.65845165       0.59016876      -0.61938002      -1.09037910      -0.04884435       0.04193455       0.07537619
H       18.47588409      15.60627065       2.35228459       0.68158249      -0.16756716       0.02264655      -0.08570547       0.08536538       0.17377578
C       15.72121614      17.68613401       2.39034484       0.93770266      -0.01880413       1.21517080       0.19328564      -1.14216301      -0.39050296
H       15.06529451      17.09630267       2.99475524      -0.43329506      -0.86466022       0.38986266      -0.04951151      -0.13093099      -0.08967663
H       15.16804247      18.11352070       1.58091830      -0.16422489       0.39827520      -0.68064053       0.25015847       0.19233985      -0.01446319
H       16.16326991      18.42452774       3.05468384      -0.14889268       0.55107242       0.06757697      -0.20767908       0.09399078      -0.19653169
H       16.49951114      16.30786129       1.09083579       0.23637246      -0.72835434       1.07283230      -0.08358884      -0.02304138       0.26653925
H       17.38413517      17.50689944       1.28056740       1.25751647       0.80090002       0.08187937      -0.08660694       0.21741425       0.07714268
N        9.42741306      24.69816602       9.29607162       1.29866726      -0.34841001       0.72807098      -0.50819777      -0.70387440      -0.08856665
C        8.53557788      23.55511919       8.99732638      -0.65366356       0.31775832      -0.56967023      -0.05948233       0.07757584       0.14109812
H        7.57193945      23.95607531       8.63226920       0.23078881      -0.27999791       0.11803929       0.18506920      -0.07608218       0.10123153
H        8.38819217      22.94484420       9.88633817      -0.04911240       0.10386923       0.37982116       0.12180936      -0.10743982      -0.19234748
H        9.00325455      22.90834807       8.25222778       0.08290232       0.10512057      -0.22773768       0.02920271      -0.03520136       0.11842636
C       10.76874040      24.12113476       9.81138037       0.15703797       1.74640069      -1.19926693      -0.40321765      -0.31695034       0.09585081
H       11.50982126      25.02436969       9.80959125      -0.96588250      -1.60670948       0.18547999      -0.08347212       0.00685785       0.03726372
H       11.06880104      23.34153794       9.06114128      -0.07039946       0.59684097       0.76188236      -0.05674188      -0.00121569       0.29822009
H       10.59017475      23.72518004      10.80591292       0.13036611      -0.24580644       0.18951790       0.00509583       0.24554329       0.18586343
H        8.95945572      25.29404708      10.02500540       0.40874493      -0.08419722      -0.35033480       0.13230451       0.22660462       0.07309166
H        9.67331205      25.32051736       8.46736386      -0.57600830      -0.43785122       0.19496828       0.23413598      -0.01422555      -0.09013391
N        8.57906600      17.26986141       9.57963751      -0.33377895      -0.43446785      -2.48283939       0.02710521       0.46813392       0.66779888
C        8.27255981      16.00664343      10.36045387      -0.05805438       0.73226925      -1.95132005      -0.20833902      -0.18889798       0.14991866
H        9.10489139      15.90301842      11.06015841      -0.20738454      -0.42828360       0.16526440      -0.04028313       0.02158475      -0.30814432
H        8.20139784      15.22055770       9.52011151       0.15415555       0.53765101       1.61183329      -0.04378973       0.06368069      -0.12449362
H        7.29630704      16.25284895      10.78854146       0.02468178      -0.63904052       0.45254336      -0.00123855       0.15208012      -0.07643649
C        9.88554800      17.19946282       8.79626343      -0.63195689       0.29902759      -0.09263819      -0.84110292       0.03089102       0.71722494
H       10.59092081      16.92472967       9.54525702       1.10031246      -0.08952187       0.59280677       0.17932938       0.03843317      -0.20213612
H       10.04558422      18.22967538       8.41559834       0.18812053      -0.62439976      -0.06722857       0.06001505       0.17927853       0.02059615
H        9.91118597      16.40459355       7.99557351      -0.48801061       0.76309298       0.65767324       0.03601955      -0.00278184      -0.22745140
H        8.48501752      18.17739827      10.09112099       0.07182646      -0.30820105       0.22556264       0.36551483       0.04106030      -0.12730665
H        7.84049875      17.34863638       8.79859484       0.38171068      -0.04323691       0.94456796      -0.24094684      -0.01871138       0.10792327
Cs      16.54888730      23.11770062       2.67965625      -0.03641436       0.10392350       0.05921758      -2.77708610      -3.39894988       3.18473728
Pb       6.61509111      20.18460631       6.43653042      -0.18027705      -0.04752704       0.08369796       3.61561735       1.94194627      -3.65201821
Pb      12.87217771      19.93806606       6.63572753       0.32025780       0.19451570      -0.06514613       0.06555642       1.12652507       2.15316269
Pb       6.56178451      19.73993468       0.33084382       0.30121075      -0.06560084       0.03867111      -2.00144610       3.11781710       3.42794518
Pb      12.86675252      20.56101370      -0.10999609       0.17534244      -0.25024980       0.22935442       5.07630720      -0.83335978      -2.02022085
I        9.74639082      20.49783688       6.59551152       0.25019829       0.00126830      -0.03245786       0.15966778      -2.43284617       2.52495900
I       16.29912997      19.87370376       6.24352662       0.08300596      -0.05756552      -0.00043007       0.82683576      -1.77821551       0.19557632
I       13.33529527      16.68272980       5.96676160       0.01521683       0.19690618       0.24490780       1.03906244       0.01674717       0.88046583
I       13.60545376      23.27590931       6.46931778      -0.22727544       0.04052948      -0.10088057       1.51877371       0.79208477       0.19024776
I       16.19933215      20.39994388       0.10920566      -0.01302224       0.07555803      -0.18339309       1.53349970      -0.16179485      -1.52581029
I        9.65275481      20.33622531      12.09559463      -0.04447884      -0.06974041       0.20361750       3.15765067      -0.91253954      -4.59123997
I       13.46524031      23.29483814      13.18774345      -0.08398422      -0.05025718      -0.05045369       0.12532034      -1.64478735       0.84042141
I       13.69539049      16.17712909      -1.48099709      -0.24986038       0.08388990       0.26356279      -1.03799137      -0.54665710      -0.01495525
I       19.23872750      19.75614646       9.38428825       0.09160960      -0.04752628       0.12185411      -2.22996812       1.53756720      -0.66751979
I        6.76814045      19.11060001       3.52059972      -0.02695511       0.12172169      -0.20926336       0.44479793      -0.87986585      -0.74561927
I       12.68947216      20.57216486       3.54052046       0.10294949       0.12486052      -0.06909708      -2.32653288      -2.75247778      -0.85603342
I       13.73838560      19.29375512       9.87601865      -0.00477713       0.13206008      -0.12485798       0.53640555       1.15261890       2.01906924
N       15.84955958      17.90861418      17.04109125      -1.17592624       0.00844252       0.96747802       1.15003126       0.47497033      -0.15562157
C       16.96067353      17.08614218      17.55180409      -0.22775078      -1.31204136      -0.31224083       0.31033432       0.13319072       0.82612237
H       17.38087555      16.40827602      16.76591135      -0.35871344       0.57272387       0.38826606       0.12076203       0.19489355      -0.17462104
H       16.53783040      16.48000843      18.37077796       0.30436894       0.03112097      -0.09980430      -0.17690396       0.15533001      -0.07321492
H       17.68053868      17.79937361      17.90433847       0.78334416       0.08749827       0.36166448       0.12387719      -0.12805573      -0.05483639
C       14.70350245      17.16304950      16.36199245       2.09379513      -0.39593211      -0.80226538      -1.74877600      -0.01938249       0.67713282
H       14.19593399      17.86601762      15.73333922      -0.29769135       0.44559013      -0.56042511      -0.29185018      -0.05982667       0.14745126
H       14.01115086      16.73993537      17.03886707      -0.59611476      -0.40253272       1.29873728       0.24378895       0.14782449      -0.19699060
H       15.19068540      16.32717008      15.78431609      -0.42696881       0.77681870       0.25599534      -0.21690151       0.19273875       0.20061653
H       16.23468424      18.61277930      16.41986385       0.10219121       0.44716411      -0.73831428       0.06055537      -0.03853038      -0.05415577
H       15.54449078      18.45152341      17.90101795      -0.23845929      -0.18823932      -0.73750038      -0.01447459       0.00709453       0.00181253
N       10.52814755      23.58977902      24.25077677       0.32666711      -0.16368385       0.36867785       0.03962770       0.44944410       0.00047258
C        9.47818364      24.22904557      25.12697061       2.11610790       0.56247271       0.18756502      -0.12613250       0.00037723       0.77369629
H        8.92429836      24.82064544      24.45253069      -1.22485972       0.62897235      -0.76736429       0.26441360       0.36497738       0.02265939
H        9.89824263      24.92635251      25.90424895       0.06444079      -0.70188285      -0.55848238      -0.25295444      -0.12347036       0.15063650
H        8.92885119      23.45554272      25.60242844      -0.78452409      -0.83470594       0.41144658      -0.08588910      -0.00192636      -0.02016692
C       10.02157758      22.96462553      23.01876093      -1.61983101      -1.38944137       1.16691257      -0.50186411       0.00701436      -0.40485612
H       10.88019660      22.56167161      22.48514169      -0.21157137      -0.26546936      -0.34814668      -0.08130197       0.16158819      -0.04215772
H        9.50274274      23.75053917      22.51057232      -0.31260779       0.48114210      -0.89080117      -0.06420483      -0.21713902       0.06409265
H        9.22739004      22.20314090      23.36080353       1.17460589       0.66764132      -0.73851619      -0.00556075      -0.15101294       0.09549999
H       11.16389249      22.93102947      24.71418704      -0.21970280      -0.68078981       1.04128374      -0.00071848      -0.26337689      -0.29572459
H       11.24920490      24.21555679      23.93694934       0.47105769       1.68132168      -0.20875912      -0.08314236       0.08765199       0.03797258
N        9.93371194      16.52256210      23.72688311      -0.59541967      -0.06901129       1.09791199      -0.21968067       0.29601987      -0.80357104
C        9.66108429      17.72550146      22.83333803       2.57295978      -0.50194301       0.13003891       0.08952816       0.37327216      -0.99863668
H        8.85105118      17.45379193      22.17174989      -0.30447133       0.08776358      -0.30778502       0.19443502      -0.02427346       0.11419391
H       10.65153902      17.90269815      22.30302390      -1.18900035      -0.04538134       0.08987357      -0.12485164      -0.24657021       0.00604107
H        9.46382076      18.59027861      23.45689205      -0.28234296       0.27387604       0.19847926      -0.02365578       0.15989138       0.13259143
C        9.87167572      15.22766960      22.94962304       0.57232135       0.61491868      -0.07598130      -0.35611155       0.33694767       0.41267751
H        9.03326300      15.36209428      22.28358618      -0.89142221      -0.58375210       0.04131502       0.00155531       0.00970236      -0.06004002
H        9.89756391      14.30912939      23.60284590      -0.05147002       0.92999957      -0.66109047      -0.08235787      -0.19108421      -0.16854561
H       10.71259807      15.34115081      22.23914196       0.19276713      -0.65582711       0.38554219      -0.02920785      -0.22312411       0.29040562
H        9.20681681      16.59944037      24.48609578       0.44902432      -0.55650934      -0.39226216       0.14684577       0.03463922       0.10255355
H       10.86741682      16.50525761      24.22107150      -0.43438629       0.53715136      -0.34840464       0.21932845       0.00355601      -0.10058127
N       16.42855259      24.11428217      16.49215751       0.20212975      -1.10660671       0.73508426       0.69239618       0.22500854       0.00745636
C       17.34611960      22.94754790      16.15892553       0.26711813       1.37872940      -1.06677692      -0.26918532       1.52735837       0.53208385
H       17.35982727      22.32813431      17.00336375       0.18052054      -1.00275725       1.51331194       0.15805261      -0.12944528      -0.00450446
H       18.33701653      23.44056388      16.01329277      -0.46318995      -0.71187813      -0.31995333      -0.29583762       0.02212634      -0.28320779
H       16.95431293      22.33873574      15.30532574       0.23141199       0.77314640       0.30438115      -0.17727260       0.06175648      -0.12808111
C       15.18910025      23.67049249      17.23885519       0.05739546       0.69701813       0.43110038       0.11948638      -1.23650323      -0.17769626