520
Lattice="25.795421715153466 0.04950089767531666 0.1962202125640992 -0.00888091584657168 25.735102798912575 -0.12719183318941119 0.1724010968349129 -0.15624006586752778 26.075091893506645" Properties=species:S:1:pos:R:3:forces:R:3:momenta:R:3 energy=-1954.7462158203125 stress="0.000309862953145057 -0.00011113099026260899 -5.724579386878759e-05 -0.00011113099026260899 0.0005252708797343075 -0.00042000852408818895 -5.724579386878759e-05 -0.00042000852408818895 0.0008603601017966866" pbc="T T T"
N        9.97754737       9.72428235       4.19368703      -0.27936027      -0.71090011       0.35353216      -0.37802314       0.47512164       0.32872086
C        8.71833470      10.00442163       3.45224352      -0.06308878      -0.18576247       0.12212484      -0.89235827       0.76863340       0.25363963
H        8.77290335      11.02272086       3.12710727      -0.20881269       0.96685104      -0.12049216       0.20991112      -0.02865257      -0.14575820
H        7.88290595       9.80391265       4.14311228       0.09805733       0.20236080      -0.26204823       0.15724389      -0.10713179      -0.03782571
H        8.64229209       9.40433528       2.55409142       0.11058664      -0.59354093      -0.21355026      -0.41703222       0.29359094      -0.06103083
C       11.23948583       9.66059400       3.41284554      -0.17394077       1.38327307      -1.06226200       0.29233473       0.07758112      -1.09408510
H       12.09430860       9.64807069       4.07885390       0.19231236      -0.06294196       0.28748052      -0.12284812       0.06675342       0.12184459
H       11.17689166      10.63038700       2.89762945       0.65833470      -0.00440005      -0.13253204       0.04023759       0.03736114       0.12477378
H       11.34637787       8.91554725       2.61226992      -0.59422212      -0.42433483       0.46296357       0.17050830      -0.25882969       0.08038716
H        9.79677718       8.86989416       4.72004725       0.29648894      -0.49475043       0.39131010      -0.11340584      -0.24755289       0.13126748
H       10.10905363      10.48285258       4.88933520      -0.02919586       0.01401716       0.25718746       0.01810738       0.04687461      -0.13683886
N        3.31046988      16.28993142      11.17281458       0.73784160      -1.02126770      -0.40439758       0.74145141       0.63732065       1.36055931
C        2.37506021      15.34583213      10.34134357       0.77921303      -0.31286949       3.00066874       0.31494859       0.14060126       0.12780958
H        1.51496828      15.08200305      10.98172498       0.18790229       0.11399583      -0.15166813       0.00552847      -0.21585478       0.01898622
H        2.93314804      14.39809797      10.12959864      -0.24778861       0.95041645      -0.28112451       0.03164652       0.00194761       0.34578368
H        2.07573502      15.97484479       9.55223479      -0.41943731       0.30018688      -1.51911905      -0.11107864       0.19932217      -0.00808789
C        4.24984692      16.97522838      10.17402621      -0.14365917       1.92159708       1.39501199       0.43719470       0.72369930       0.56517794
H        5.10189582      17.40888967      10.77698333      -0.65496810      -0.32524828      -0.58550001       0.13721103      -0.03614720      -0.00097147
H        3.72186539      17.84961074       9.64231297       0.41380783      -1.30583494       0.74175454       0.07605855      -0.05699110       0.16108562
H        4.64085379      16.27051830       9.45644954      -0.02464961      -0.53710539      -0.27954992      -0.13419824       0.13795918       0.14695852
H        3.87958101      15.73999883      11.88315787      -0.35127625       0.03402981      -1.00986258       0.01593379      -0.08407361      -0.01444318
H        2.86837441      16.97070511      11.86893501      -0.29107918      -0.04003042      -0.97381480      -0.13181170       0.04967051      -0.15346331
N        3.34131683       9.03279907      10.19233164      -1.39626624      -0.00660911      -1.92313953       0.06739408       1.24553773       0.84044663
C        3.58772809       9.51474326      11.51722568       2.86092936       0.10772001       0.80672944      -0.32863603      -0.86374495       0.34605887
H        2.71172274       9.82393019      12.02312309      -1.16269859       0.61045064       0.36950351       0.17297801       0.07179771       0.07192576
H        4.31394303      10.34092965      11.33441234      -0.37451219      -0.20358366       0.82347274      -0.09449725       0.09039646       0.02049588
H        4.05778314       8.70453977      12.11833715      -0.13622467       0.46060133      -0.25107043       0.10873450      -0.29243289       0.04918006
C        3.06067626      10.15134560       9.20726765       0.33503710       1.03840035       0.86305215      -0.14607396      -0.41278344      -1.21926408
H        3.85545705      10.91270285       9.27640305       0.24564771      -0.46706003      -0.17335462      -0.17461173       0.24268594      -0.01100792
H        2.15228216      10.70356162       9.52702888       0.05849004      -0.50968126       0.12542516       0.07300157      -0.09901323      -0.00767236
H        2.90031485       9.82460020       8.19271985       0.14011602      -0.51210122      -0.46397114      -0.08100106       0.28248341       0.18346917
H        2.46658554       8.52453300      10.21554063      -0.70158249      -0.86184531      -0.01093885      -0.15413278      -0.06721092       0.38572994
H        4.03238617       8.33117635       9.89393444       0.35200500       0.17323919      -0.21336662       0.15305578      -0.05806658       0.10444527
N        9.48308653      16.18755598       2.51535307       0.38050557       0.91961307      -0.23056952      -1.06402745       0.19475624       0.35435228
C        9.37898680      17.46706593       3.40452279      -1.49504256      -1.87078887      -0.87097095      -0.21832714       0.54483319       0.71528974
H        8.53937689      17.16898729       4.08522253       0.75770784       0.55361546       0.01577895      -0.14050759      -0.08019858       0.33888095
H        9.02082342      18.26454379       2.77626524       0.14621323       0.60513886      -0.28648248       0.05051476       0.25570068       0.21611849
H       10.31911229      17.62020450       3.90726351       0.36317327       0.21441018       0.11784492       0.09671523      -0.00065359       0.17163072
C       10.02001381      15.14838919       3.38318460       0.13974029      -0.91850411       1.87901799      -0.76606842      -0.07249699      -0.75270495
H       10.91732669      15.55024523       3.93907197      -0.98837429      -0.08091933      -0.13466197       0.03361157       0.01750352      -0.05696366
H       10.46635322      14.29551903       2.87929763      -0.44397848      -0.27270042      -0.61576841       0.29266783      -0.03169842       0.06037688
H        9.17037604      14.81959550       4.08222670       1.32051693       0.29372666      -0.63668297      -0.05688142       0.15914643      -0.16670743
H       10.03739088      16.21141754       1.60897280       0.16749418       0.65116789       0.61108677      -0.06150849      -0.16366094       0.09296436
H        8.53741704      15.96050856       2.17094375      -0.23278546      -0.15107387       0.04617412      -0.26651290      -0.00186404       0.23045302
Pb       0.42177290      12.68705520       6.54346421      -0.42962190       0.43105014       0.10722990       0.61103436      -4.36487841       2.95173993
Pb       6.55496836      13.09256983       6.49449883       0.09200064       0.03502473       0.12303705      -0.09059456       1.02999855      -2.83651218
Pb       0.25785026      13.09628618      -0.11455979      -0.00052971      -0.28939719      -0.00345819      -2.56370367      -0.94033528      -0.06640258
Pb       6.70806014      12.93847296       0.26592095      -0.16617523       0.14243971      -0.00757757      -2.70291889      -0.99330816       2.26625391
I        3.39414238      13.30733353       6.56055992       0.31478226       0.03262460       0.07506329      -1.51727854       2.51322054       0.05019207
I       10.09750252      12.59602877       6.71563604      -0.35509478      -0.06245164      -0.06649581      -3.73384525       1.24200841      -3.97366116
I        6.59072326       9.42314557       6.66047199       0.03208915       0.27839745       0.23893602      -1.64378962       0.79810210      -2.04649905
I        6.66237848      16.27206230       6.45826113       0.00977954      -0.08768815       0.21156052       0.93196828      -0.04325197       1.69608019
I        9.71646089      12.08266777       0.07248559       0.26659397       0.03985465       0.01438526      -1.27383940       1.75510359       3.86683246
I        3.09477398      12.90386624      13.44510705       0.07921675       0.15676981      -0.00580511      -2.27172484      -1.13808396      -0.98829178
I        7.69173440      16.27256632      12.96774398      -0.26627184       0.07687876       0.11443688       0.59215704      -1.80071865       0.75167609
I        5.90978693       9.68563100       0.04018443      -0.11443392      -0.07233639       0.18005570      -0.00545079       2.41468315      -4.96439966
I       12.48405105      12.96354769      10.16418330       0.12151747       0.04170723      -0.15529090       0.92577713       1.57012087       0.88024416
I        0.49566945      13.26283779       3.42764991      -0.15401122      -0.06413059      -0.16570782      -1.71235994      -1.82555398       0.37440388
I        5.98695479      13.93847185       3.36106416       0.19978579      -0.09929991      -0.09859774      -0.55265316       1.90448248       1.23681639
I        6.72994624      13.28861617       9.82613519      -0.11088032      -0.30793588      -0.08540348      -2.62239219       1.19600884      -0.77428778
Cs       9.76098630       9.38035405      16.52160880       0.03719503      -0.03881981       0.00360697      -2.40707026      -1.69739385       0.04467852
Cs       3.06180250      16.17767215      23.25525766      -0.03274156      -0.02834061      -0.00019183      -1.78580222       1.06816859       0.41535445
Cs       3.59940792       9.71506273      23.19985775      -0.05050887       0.01750357      -0.03032440       1.23213395      -1.63002035      -0.71705175
Cs      10.02847317      16.38249928      15.97869747      -0.07982764      -0.06445608       0.07647679      -1.66277266       1.03118588       2.54164800
Pb       0.16647922      12.71315079      19.39554334       0.01518667       0.02247620       0.13679630      -0.75233525      -2.53203438      -0.71300911
Pb       6.52391333      13.01631653      19.81287654      -0.07305334      -0.07056268      -0.19907354       0.29349755       1.35962342       1.30909858
Pb      -0.36637698      12.35421498      13.13209032       0.18323826       0.25027777      -0.10033119       1.25565124       2.70705395       1.63902096
Pb       6.36243674      12.40114600      13.56097263       0.20626896       0.32339731      -0.02127907      -1.69142061      -0.66966405       0.22640865
I        3.27379358      13.67102351      19.75724738       0.16234927       0.12540651      -0.04410575      -0.64923450       0.19003551       1.52596074
I        9.56054189      12.11244531      19.27771405       0.22052929      -0.02664506       0.00965369      -0.61182271       0.37130202      -0.36836848
I        5.84827261       9.69608231      19.73529906       0.06616473       0.03160541       0.17672360       1.52257350       1.26206320      -0.77766348
I        7.37919920      16.11622661      19.51240937      -0.03577456       0.06575953      -0.01619108      -0.97365031      -1.95613830      -0.16976007
I        9.65035799      12.89092035      13.16780721      -0.19728663      -0.13779003       0.16617461       3.57894546       4.96158029       0.44188673
I        3.59152979      13.32955951      26.04018289      -0.12630745       0.07173866      -0.07677845       1.00696999       1.38572954      -0.55316282
I        7.51739934      15.76056829      25.56700105      -0.10457027      -0.04482532       0.38721501       0.23245708       0.14181044      -3.85535813
I        6.89383156       9.42789741      13.79161954       0.04621105       0.13533035       0.03424758       0.81355990      -4.07242845      -0.43741154
I       12.85669090      13.38683225      22.60885532       0.07621673      -0.15608526       0.29215456       3.83316685       2.72952528       0.53460413
I       -0.70018263      12.47693217      16.28406887       0.12377468       0.20028081       0.06730465       1.01164164      -2.97814157      -3.70961630
I        6.64435781      13.26062468      16.58266611      -0.09626003      -0.01384920      -0.45164225      -2.01357361      -0.66812786      -2.50242014
I        6.69859393      13.11051767      22.81784197      -0.05889247      -0.04792950       0.31484282      -1.42633598       0.42272248      -0.03475428
Cs      16.11027847      15.67857262       3.10399093       0.01182054       0.08690501      -0.12143146      -0.72303974      -0.27367885      -0.79736435
Cs       9.72942415      22.33560010      10.12562941       0.01338749       0.17437176      -0.01836358      -2.41791627       1.45926687       0.47414721
Cs       9.01820689      16.13584050       9.54070490       0.25585938       0.08100186      -0.04446972       0.68348023      -1.02631704      -0.93514340
N       15.93177926      23.00510823       1.46438278       2.03079840       0.24163410       1.17992423      -0.61929568       0.15898834      -0.19873825
C       16.63526984      21.83863919       2.10813285      -0.07995379      -0.96267613      -0.12677395       0.10786514      -0.80976297      -0.44453800
H       16.77658567      21.00318436       1.37967336      -0.78485817       0.27595992       0.38384366       0.17074793       0.06418308      -0.06779600
H       16.11293810      21.55520143       3.05862275       0.04044066       0.06300574      -0.92427933      -0.07103406      -0.00172196       0.17809967
H       17.67768703      22.02141911       2.38247443       0.11396182       0.93325756       0.13711624      -0.26615782       0.15485330       0.16545469
C       15.62294171      24.03565592       2.49486874      -0.19090989       0.67663928       0.48564778       0.24738949       1.02842634       0.49539301
H       14.57403148      23.90330822       2.72182060      -0.52117470       0.14471469       0.32808915       0.00066825      -0.14968220       0.07845962
H       15.80173308      25.08520033       2.17427368      -0.07878753      -0.66015814      -0.26948496      -0.11358869      -0.05506279      -0.20160763
H       16.19297276      23.89049176       3.42474512       0.14472590      -0.37202411      -0.34379266       0.04533801      -0.02825524       0.03043141
H       15.07527799      22.71980986       0.96712773      -0.70115942      -0.39759403      -0.21649033      -0.05881174      -0.10880295       0.15341480
H       16.56094785      23.44256275       0.77603902       0.25444012      -0.05598903      -0.36560986       0.02149673      -0.11105984       0.21899671
Pb       6.56638727      19.50454021       6.75965698      -0.02065583       0.04253990       0.03020383       2.16498213      -2.08144352      -3.31098336
Pb      13.27299136      19.06875509       6.61653795      -0.25205790      -0.17291562      -0.05541681       1.87530034       0.73250526      -2.30797586
Pb       6.36183319      19.30638957       0.34319734      -0.01104329       0.05416309      -0.29541576      -5.16579286       0.79090396       2.40112387
Pb      12.83104900      18.93181941      -0.07363523       0.08953420      -0.06352422       0.06140825       0.25596921       2.36460632      -7.33962323
I        9.63653845      19.67567698       7.46311171      -0.06350644      -0.06470110      -0.19429228      -2.20426804       3.04566174      -1.07246930
I       15.93132464      17.86990010       6.16052695       0.45977406       0.21451008       0.26496426       2.28221648       0.06806275       1.14792129
I       12.71595918      15.78990897       6.79077916      -0.10845412       0.23304371       0.07817184       1.23116280       4.45586304       0.49127195
I       13.58943036      22.29122576       7.39123852      -0.00694779      -0.21904526      -0.07258894       0.74881419      -2.51653278      -0.20342719
I       15.98804518      18.26663889      -0.33685438       0.18501956       0.03819812       0.13471880      -0.08749647       1.06894527       0.19520945
I        9.39934800      19.95424297      12.96177213       0.48095461       0.12640751       0.03710493      -0.42798895       2.13777893      -0.31004321
I       13.40238573      22.44297015      13.23111958      -0.09334695       0.32037585       0.09755764       0.29803651      -0.64819817       0.61553088
I       11.98288426      15.93587764      -0.11813314       0.02216826      -0.23406886       0.11539298      -0.27187681      -0.87153918      -0.87296902
I       19.28872138      19.68093058       9.76262313      -0.23237140       0.28710405      -0.30476919      -0.69634222      -1.38276869      -1.26823301
I        5.79043721      19.00782394       3.47059848       0.08437270       0.07695738      -0.13552516       1.80053243       0.06666872       2.39893652
I       13.45614949      18.36972423       3.38499755      -0.09625265       0.10477516      -0.06215184      -0.72229689       2.37464572       1.15651651
I       12.72948546      18.95530283       9.98645709       0.11596376       0.10002599      -0.15440463      -1.56103468       2.86819219       0.47137488
N       15.68453837      15.48333654      16.28778611       1.08766687       2.97458526       1.40231558      -0.51986970      -0.22551904       0.20331115
C       15.00075208      16.68150096      15.67593135      -0.68739434      -1.47526866       1.01683055       0.09019670       0.17565887      -0.91596210
H       14.21800961      16.98451613      16.39581615       0.22651726       0.08482163      -0.23073709       0.00055373      -0.22870038      -0.07078011
H       14.55957535      16.36628588      14.75195122      -0.39653378      -0.28195033      -0.69123588       0.07206377      -0.02348496      -0.30122785
H       15.68338829      17.47826067      15.48085356       0.85163946       0.51753028       0.11008857       0.30115977       0.13795875      -0.13101886
C       16.63236899      16.03088465      17.39502979      -0.31074202      -2.67601579      -1.51539834      -0.74829529       0.32293244       0.16352499
H       17.02538124      15.13924438      17.88194360       0.36870642      -0.09200040       0.13114040       0.00232613      -0.11995694       0.28913422
H       16.01783752      16.52536794      18.07097688      -1.09693665       1.40104735       1.21590381       0.03485264       0.35601326       0.15373156
H       17.40628141      16.60111243      16.92922085       0.45366098       0.69109738      -0.30426504      -0.04165482       0.00062287      -0.24036418
H       16.24511648      14.96432062      15.64422748       0.81669517      -0.65655241      -1.21669094       0.19013523      -0.19322304      -0.04190756
H       15.08011436      14.79813782      16.71882490      -0.95206168      -0.49464799       0.31210753       0.13223538      -0.14007519      -0.06586991
Cs      10.58896255      22.71159434      22.47784152      -0.15614744       0.06014500       0.14127813      -2.25384064      -1.67824774      -3.52387881
Cs       9.80551822      15.82803548      22.52914153       0.05139842       0.05142574       0.04492027       0.00682464      -3.97445603      -0.96154392
Cs      16.63971237      22.71743471      16.57757335      -0.13121210      -0.07844892      -0.11398014      -0.68545295       0.49313782       0.94986065
Pb       6.54921343      19.03558046      20.08267451       0.08940660       0.00935957      -0.06904506       0.79325915      -1.27609562      -1.15726739
Pb      12.83206291      19.27649267      19.62817075      -0.01411645      -0.08389526      -0.02135271      -0.68960568      -2.19786727       2.29236584
Pb       6.51415464      19.23397033      13.24467098       0.03441030      -0.01441961       0.13668865       1.43287124      -4.39870717      -3.81743988
Pb      13.27228513      19.42968940      13.14156765      -0.14304367      -0.24574785      -0.06366543       1.17048358       3.36868855       3.43487001
I        9.66924733      19.65191062      20.21195281       0.04635665       0.07453449       0.09156712      -1.28876455      -1.72720104      -1.35469912
I       15.89391536      19.56580552      19.22624226       0.32456306       0.02337444       0.04684722       2.15268354      -2.10377513      -0.41861583
I       12.49030714      16.03991795      19.41155475      -0.01269494       0.07402349      -0.11147997      -0.02973503      -1.90232397       1.11778744
I       12.82484721      22.68216669      19.35008059      -0.08947940      -0.22073822      -0.07873932       0.55796326      -3.26275359       1.30342713
I       16.41202391      19.73088252      13.27411653      -0.19574987      -0.12091690      -0.04104699      -1.95498327       3.75497436      -1.94334561
I        9.59171768      19.36007225      25.65265052       0.07035824       0.10510587       0.05115256       4.14960199      -1.03547715       1.02739607
I       12.98319337      22.11879668      26.39590354      -0.04713618       0.06981858      -0.38599574       1.46801330      -2.33273774       5.19664780
I       12.64579971      16.22430535      12.94214706      -0.38482967      -0.18410930       0.02088711       2.70709801      -5.84889798      -0.04528048
I       20.13603018      19.05989541      22.71810709      -0.22428171       0.09655634       0.00803063      -0.08982874      -3.51216038      -1.61175071
I        7.40149129      19.32485435      16.56466100      -0.10604847      -0.07164222       0.02130594       1.33215400      -3.17607885       1.85158319
I       12.49087853      19.28009461      16.14397613      -0.15859881       0.24215105       0.38808228      -0.07470675       0.36426779       3.27476954
I       13.15170276      18.19814530      22.93901252      -0.04296051       0.17945390      -0.28951356       0.52821110      -1.25397738      -2.23179327
N       10.32294976      22.14636050       2.78783234      -1.03633090       0.21259537       0.43104961       0.29044963      -0.26744714      -0.84410261
C        8.83600796      21.82690769       2.81317904       1.38283554      -0.32270204      -1.54067276       0.46117566       0.63043266       0.51508780
H        8.71721592      20.79965504       2.47492625       0.03077989      -0.31599511       0.13762475       0.12028613      -0.21924106       0.05021531
H        8.31335434      22.44059209       2.09387648      -0.03145122       0.49836277      -0.30687814       0.04229403      -0.21326892       0.03237150
H        8.45267446      21.98263085       3.76836875      -0.59200130       0.26375957       1.88544892       0.31633116       0.24340798       0.10593806
C       11.17340861      21.34883803       3.76667372      -1.41842481       1.18466511      -0.03663105      -0.57161720       1.05083116      -0.09607908
H       12.09987561      21.89769366       3.73823717       0.78885780      -0.22665399       0.44507220      -0.24250479      -0.03541714      -0.02995577
H       11.21381461      20.34055962       3.43059947       0.40906623      -0.98558610      -0.67228450       0.00072922      -0.03605829      -0.42441485
H       10.67580882      21.29389159       4.75967333       0.22568770       0.58686547      -0.36369214      -0.19105427       0.14824685      -0.07476743
H       10.50202826      23.16567951       2.91905961      -0.21410562      -0.12566089       0.40946195       0.04609253       0.04757316       0.07713315
H       10.63378218      22.03554427       1.80973323       0.39303136      -0.47725315      -0.28296324       0.05732452      -0.22978285      -0.04521708
Cs       3.36766541       2.82193386       9.68099350       0.06327831       0.15670635       0.15976960       1.20921079       2.13471010      -2.75557784
Cs       3.51941853      22.97891859       9.73811996       0.02667163      -0.10402947      -0.02125272       1.45731642       2.49616879       1.53789396
Cs       9.08067519       3.33759187       3.24754642       0.18215278      -0.13075448       0.02824084      -0.73607219      -0.21500257      -0.56803356
Pb       0.48337898      -0.22752853       6.62051979      -0.30592359       0.20954433       0.00254674       1.45096895      -1.00198499       2.75707183
Pb       6.76535514      -0.20931552       7.20021829      -0.15906383       0.02066995      -0.08117970       1.96697755       0.20681070      -1.06776673
Pb       0.11378147      -0.22702297       0.05522744      -0.08998101      -0.06767594       0.07792920       2.38617622       4.95061377      -2.27231080
Pb       6.45253259      -0.04025798       0.34132490       0.06816711      -0.26535516      -0.19951640       0.91284086      -1.66508387       0.52974329
I        3.54045379       0.58693397       6.66595541      -0.00852652      -0.08546518       0.00479943       4.67595500       1.46507095       1.27372070
I        9.68678256      25.02066441       7.05215873       0.38610057      -0.24607983      -0.18906523       0.20974906       5.46523137      -2.69540579
I        5.91045883      22.54359433       6.07431265      -0.05010621       0.04817016       0.12703347       3.70598302       0.85716801       1.20105458
I        6.81378515       3.03281097       6.97247722       0.12094483      -0.10218018       0.04091795      -1.43341756       1.75517609       1.00964312
I        9.75116377      24.87622632      -0.23089102       0.13288521       0.21693705       0.05139117      -0.10706685      -2.01151945       0.28474829
I        3.44307909       0.90205889      13.54462243      -0.16874229      -0.00679243      -0.09652567       0.02820573      -0.57721605      -0.16517464
I        7.03789669       3.11606985      12.88591987      -0.07932150      -0.19337566       0.10076306       1.80365809      -0.59804938      -1.55279110
I        6.17143544      22.51163711      -0.55888731      -0.04204513      -0.35530878       0.22188007       1.71541564       0.83964376       1.97986014
I       13.98112724      -0.15452672       9.93502224      -0.38767737       0.06845218      -0.00628698       1.04318712       0.76257136       2.11401357
I        0.30935710      25.35858871       3.33654238      -0.03349148       0.00789771      -0.17441051      -1.07081346       0.60742142       1.78011527
I        6.15172407       0.35687600       3.34022793       0.10784183       0.00085953       0.15241729      -0.98281555      -0.53007914       1.38461678
I        6.86959277      25.44643447      10.20427060      -0.31256153      -0.17117772      -0.00960869       0.97173475       0.37979949      -3.13385364
Cs       9.62171479      22.48249853      16.45060523      -0.01726317       0.02951423       0.00943528      -0.10230687       0.39798484       2.05506387
Cs       3.58251264       3.34298351      23.54281724       0.07253937       0.05097199      -0.10149626      -4.35431715       1.32523210      -0.48712692
N        2.72886317      22.92244452      22.79963197      -1.11355994       2.26404711       0.46902254      -0.60000512       0.58274578       0.57094158
C        3.31792249      21.55775988      22.68331552      -0.94924619       0.86170384      -1.26063510      -0.39501343      -0.49717228       0.21187234
H        3.81303233      21.46328320      23.61679222       1.05798010      -0.76861955       0.74751688      -0.03689303       0.08646401      -0.25284609
H        3.95842496      21.56236113      21.77375878      -0.14332495      -0.28016382       0.60278615       0.28493321       0.01048300       0.29650198
H        2.46543812      20.87349637      22.59364718       0.25618971      -0.22842261      -0.03964736      -0.07775963      -0.11600349       0.29142992
C        3.75064055      24.06524140      22.83170978      -0.38945269      -1.17291737      -0.36100586       0.16533706       0.79441951       0.65404719
H        4.41635259      24.03877903      21.96274964      -0.10200913      -0.27745540      -0.10560942       0.33919848       0.04983970      -0.08606832
H        4.31403644      23.90371413      23.74953129       0.23221051       0.29311529       0.14544539      -0.12263324       0.02759863      -0.18689614
H        3.17037517      24.97596611      22.81669994      -0.10731083       0.51773750       0.19346892      -0.18273829      -0.01760222       0.13544068
H        2.25086945      23.03895967      23.75665128       0.21496944      -0.62562811      -0.99369876      -0.02821925      -0.09954862      -0.00128614
H        1.96345051      23.18099727      22.09295747       0.88035988      -0.73620279       0.43365189       0.12974448       0.00077410       0.03981193
Cs      10.17240146       3.48859578      16.37728866      -0.07762712      -0.04734334       0.03252268       1.54861219       2.51800242      -2.56401126
Pb      -0.30703074      -0.18573886      19.69166850       0.21256134      -0.10289067      -0.36177422       0.41001649       2.12466275       2.45126545
Pb       6.46663063       0.16944550      20.02618596       0.01472238       0.08352527      -0.22958985      -2.42671871       0.49823684       0.78542656
Pb       0.28327431       0.07190851      13.23672639      -0.03511269      -0.02374270      -0.04354593       3.77121373       0.00711568       0.48602253
Pb       6.39338940       0.00499221      13.75515344       0.20043027       0.12572464       0.02354560      -3.15960258      -0.77217999      -3.66298223
I        3.38690099       0.76430252      19.34708021      -0.27844889      -0.00984359       0.36552709      -0.76813660       0.40430799      -2.47941777