440
Lattice="25.60404300622687 0.3588562097251886 -0.13919434370289577 0.35525925701450317 25.562090136271273 0.001432188824822491 -0.07792186452508461 -0.08392692152400111 25.740592881434026" Properties=species:S:1:pos:R:3:forces:R:3:momenta:R:3 energy=-1533.3831787109375 stress="0.00045701212366111577 0.0005510926712304354 0.00017274361744057384 0.0005510926712304354 0.00027874310035258526 -9.675437468104064e-05 0.00017274361744057384 -9.675437468104064e-05 5.3182397095952176e-05" pbc="T T T"
Cs      10.00291730       9.45261963       3.31341549      -0.28558295       0.05530820      -0.09330607       2.07374619      -1.18044576      -1.43311433
Cs       2.75430229      16.34500879       9.54063999       0.20087236      -0.14019048      -0.07235063      -0.26955945      -0.54885148      -1.21432053
Cs       4.03395377      10.55450009       9.74744727      -0.08985275       0.06942019      -0.11053098       1.85005056      -0.53014472       1.25774351
N        8.52291572      15.94523027       3.11257018      -0.90612987       0.37105696      -0.00793627      -0.05804654      -0.13681514      -0.37134471
C        9.30828407      14.69466602       3.03312897      -1.29858834      -1.57157967      -1.01956194       0.29832381       0.37550607      -0.16944259
H        9.83129036      14.65228241       2.04130177      -0.48210819       0.03459143       0.50664850       0.25396828       0.05363739       0.18695692
H        8.50832993      13.86695837       3.08781161       1.49053281       0.68927424       0.13747417       0.07150455       0.15173101       0.03758230
H       10.08698721      14.68588961       3.80415124      -0.33659860      -0.11849904       0.20748559       0.05946940      -0.16442994       0.19182698
C        9.43753723      17.04012667       2.82374879       2.24536271      -0.42310443       1.42407014       0.53828468      -0.75055261      -0.46842233
H        9.05971988      17.97666311       3.16192820      -0.72168837       0.96548894      -0.20870776       0.01117484       0.07191706      -0.18473898
H        9.80059585      16.98777620       1.79943547      -0.18940707       0.18006433      -0.25250664       0.04094755      -0.21096926       0.04713563
H       10.32987044      16.85138325       3.52237077      -0.74266015       0.30012709      -0.93467416       0.27218580       0.05394050       0.18471285
H        8.14199787      16.05176219       4.08900992       0.10955066       0.00911439      -0.27957638      -0.00889371       0.09830423      -0.04648518
H        7.68045641      16.00220315       2.45213667       0.72301172      -0.39148507       0.39447986      -0.27926644      -0.27378306       0.02324448
Pb       0.37032387      13.08415815       6.25043317      -0.00692028      -0.14129039       0.20126095      -1.42638326      -0.51045262      -0.62009710
Pb       6.75645723      12.72206823       6.41703019      -0.17428260       0.26460841      -0.08070472      -2.48740107       4.64060660       1.96103961
Pb       0.12697249      12.98394109      -0.25256965       0.08942787      -0.06228219       0.23013934       1.84564994      -1.15973705       0.31740107
Pb       6.46971087      12.97773903       0.07787626      -0.12253789      -0.20121344       0.22613814      -1.54604066       2.29310506       4.17964282
I        3.44441989      13.34788944       6.97538443       0.15763330       0.18857650       0.04239292       2.24242445      -0.03773060       0.38005457
I        9.64838768      11.73484382       5.90853741       0.02867705       0.11589739       0.19924871       0.88980077      -0.33177217      -1.09895419
I        5.79672514       9.80120080       6.39183177       0.14696671      -0.17075547      -0.01944059       1.35540492      -0.17985890       2.88540301
I        7.67663783      16.22608069       6.83926980      -0.10862399       0.12488598      -0.15338507       0.24598738      -1.69035979      -3.61600401
I        9.51559208      12.15565370       0.38759189       0.16001523      -0.06426953      -0.12534769      -0.47688794      -1.15696631      -1.90673919
I        3.41882569      14.14349305      12.44281231       0.03667346      -0.19584126       0.04032756       0.33437666       1.62177562       0.52376156
I        7.55818926      15.96554726      12.78878942      -0.00634128       0.17355096       0.05824421      -0.98432950       1.12066373      -0.58776490
I        5.82912998       9.55127727       0.28540184      -0.05890419       0.19672721       0.08527398      -2.19874064       1.70074274       2.01309312
I       12.12167686      13.45587994       9.48214131      -0.03764480       0.10492434       0.39178589       0.13443794       0.47018997       2.09455377
I        0.48922862      12.51213964       3.24275835       0.08506773       0.03306875      -0.26536259      -0.48407613      -0.64963978      -1.42528981
I        5.52208918      13.24381535       3.29524223       0.05378496      -0.01587791       0.03326674      -1.00640900      -2.12975476      -2.61182516
I        7.21081027      13.12869202       9.42825067      -0.02995111      -0.18667476       0.30873416      -1.33570372       0.88662426      -0.14948568
Cs       9.11085578       8.93155190      16.07671016       0.01030880       0.28790147      -0.19000714       1.20129016      -3.16421961      -0.03816739
Cs       3.63644142      16.62496177      22.33196988      -0.04817704      -0.09307203      -0.05273687       1.37688629      -0.82184988       1.09429347
Cs       2.68257189      10.25172533      22.43491640       0.11269097       0.00439486      -0.09441673       0.82471513       2.45729173       0.69668589
Cs       9.53479512      15.52397973      16.77261337      -0.06111830       0.02649090      -0.15370747      -0.03472726      -2.14543225       0.84913072
Pb      -0.13436486      12.75372653      19.05701185      -0.04680056       0.12072198      -0.10784712       2.06222058       0.82771645       0.44792903
Pb       5.96749324      12.86534305      19.52015506       0.12625074      -0.08500697      -0.08994626      -4.55226228      -0.63770580      -2.06662005
Pb       0.45138148      12.83130541      12.44789950      -0.12038881      -0.02778780       0.15714412       1.23010109      -1.26381272       0.92193591
Pb       6.59256295      13.02471761      13.16662072      -0.02969406       0.10473130       0.01728758       2.19598150      -1.57786420      -0.25182064
I        2.85403929      13.46647607      19.81385397       0.00500664       0.08839977       0.02623823      -3.18333487       3.39168079       1.18388956
I        9.17803591      12.39068762      18.94445578       0.25063105      -0.12943567       0.03033312      -0.74271969      -1.55422907       0.64696143
I        5.68361889       9.64514129      18.85936628       0.02029509       0.14081188       0.12523292      -0.57515215      -0.70008422       0.19083173
I        6.86023852      15.77828296      19.76326712      -0.27314971       0.26938146      -0.22799162      -0.68306204      -0.01426041      -3.17871888
I        9.57664713      12.01175030      13.53272593       0.09230277       0.08232911      -0.02810650       0.32958306       0.58882853      -0.40144468
I        3.18644721      13.51738350      25.52826728      -0.07943632       0.05578461      -0.07547055      -2.56352562      -0.93891451      -0.64887766
I        6.50778821      16.04391059      25.67810486       0.12414758      -0.07033405       0.05508306      -0.38880235       0.50681007       0.16742091
I        5.70819057       9.92025561      13.09955101       0.02409869      -0.21663498       0.03945603      -0.65458471       1.36561732      -0.21802501
I       12.94095190      12.70992821      22.52667556      -0.12489646       0.06310711      -0.07324095       0.33496804      -3.06685866       0.83627804
I        0.41900480      12.33953454      15.90929778      -0.01671084       0.20608460      -0.12891943       0.98326265       1.09031922      -0.12206123
I        5.71856096      13.43043514      16.25051074       0.02215269      -0.01615324      -0.17513966      -0.96549565       1.39168766      -2.52977875
I        6.11571705      12.47349471      22.79324860      -0.00774565      -0.18896464      -0.30211770       0.87061205       0.21377143      -1.34703707
Cs      16.23659614      16.33966756       2.75595436      -0.05831181      -0.18010394       0.20768743      -1.81285367       2.49132978      -0.00423729
Cs       9.38910796      22.21259921       9.85485880       0.09975460       0.14911128      -0.02606738       0.67357701      -0.49305786       1.38526714
Cs      10.09331080      16.85701035       9.84214428      -0.05981708      -0.15137521      -0.06346604       3.04945306       1.46649241      -0.95434972
N       16.63826336      22.66273953       3.60235388       1.23428286       1.27106757      -0.69433832       0.02824286      -0.57762249      -0.23348772
C       16.06415256      24.04666227       3.53917542      -1.28111079      -1.09664845      -0.13825179      -0.11772607       0.85257895       0.42304247
H       14.96712448      24.02173368       3.24032403       1.19101319      -0.05029745      -0.02373844      -0.05666401       0.06438524      -0.12454203
H       16.71437055      24.63962772       2.92793014       0.18515012       0.44288130      -0.61966952      -0.16113500       0.08949069       0.04210450
H       16.13160531      24.40343309       4.53600407      -0.14444274       0.70346985       1.15985006       0.12441434      -0.13796871       0.11050731
C       15.77733082      21.65994313       4.27476272       0.50377248       1.35564531       0.04939371      -0.60995611       0.32241290       0.08053308
H       15.85868423      21.88889122       5.33478879      -0.62533713       0.19385186       0.38035711      -0.20220369       0.00258690      -0.08122756
H       16.19499063      20.69722618       4.16847536       0.56356692      -1.37633698      -0.50821485      -0.19933462      -0.16221947      -0.11007770
H       14.79509223      21.74795773       3.81703479      -0.38216205      -0.10033999       0.22698312      -0.32759001       0.01222685       0.03605363
H       17.60293627      22.84009429       4.03675316      -0.69097837      -0.77988896       0.39616311       0.21022581      -0.23453959      -0.45230390
H       16.94485836      22.42852765       2.64300013      -0.32926321      -0.55864904      -0.31222567      -0.05567102      -0.00694334      -0.01275473
Pb       6.67900579      19.42363187       6.52433455       0.26336064      -0.22096879       0.05329951      -0.44109502       3.43653034       0.16033748
Pb      13.09169199      19.04506596       6.11584492      -0.19586880       0.10561401       0.05714170       0.35771983       0.30851482       0.16314211
Pb       6.79022440      19.34946925      -0.32428738      -0.18724538       0.04746907       0.07999144       0.22782031      -5.86029085      -3.24063963
Pb      12.98541145      19.64616395      -0.11976212       0.08541187      -0.04181974      -0.02346702      -2.36935291       0.27182579      -2.23197158
I        9.79463494      20.48321724       6.49535091       0.06094297      -0.19153698       0.02686431      -0.10640383       3.49394908       1.30587535
I       16.15852101      18.24164146       6.33496898      -0.05271340       0.22234916      -0.32161796      -1.71706296       0.34473225      -3.07539421
I       11.98872865      16.25755467       5.65604610       0.20591629      -0.04013102       0.28771422      -3.83557353      -1.12279565       0.62450403
I       13.37098760      22.45886410       7.51265089      -0.07563207      -0.07954293       0.07306924      -2.12806592      -0.91409358       1.44533771
I       16.20215739      18.99751663       0.24211804      -0.27028992      -0.00739612      -0.05214323       1.11076418       0.29409073       4.44551513
I        9.68065299      19.67022027      12.66114591       0.39259486      -0.01051853       0.08006951       0.45385202      -2.86342545       0.58755010
I       12.98339279      22.55176647      12.65235965       0.13864120      -0.15339156      -0.13332974      -0.89807694       1.11341675       1.05275024
I       12.68837699      16.30021929      -0.58190246       0.05899285       0.03053821       0.25351440      -2.00425147      -0.49225987       2.24594664
I       18.98720084      20.39248834       9.47839015       0.04722661      -0.09102778      -0.11626978       2.57086257      -0.94283786      -2.89105378
I        6.26554937      19.21232031       3.27156424       0.07590823       0.10710912      -0.04590671       2.23034027      -0.67367631      -0.59200924
I       12.30085599      19.51745762       3.06067567       0.28964258       0.12082881       0.14570753       1.49491851       1.16534657       1.63914977
I       13.55695388      18.46437242       9.79901792      -0.22433944       0.07912478      -0.10099954       0.35802026       1.14089511      -0.23210717
Cs      16.96561472      16.19813941      15.69428172      -0.31440043      -0.04205441      -0.03816188      -2.56740089      -1.26570512      -0.11634308
N       10.05335797      23.47413871      22.21032533       0.44231208       0.30962531       1.44316668      -1.22162682      -0.16342707       1.36680486
C        8.60483331      23.08509347      22.07681323       0.58153065       0.60301607      -1.09011819       0.83165001      -0.52720717       1.14832908
H        8.30104666      22.94987740      23.10138384      -0.77825508      -0.23644799       0.42497934       0.13422972      -0.06661894       0.15239264
H        8.56531284      22.14852821      21.49696592      -0.25175856       0.29528100       0.06466858       0.04536094      -0.15324799       0.09001312
H        8.11039683      23.97543541      21.56998119       0.15273677      -1.21067685       0.54571390      -0.07153014       0.34767380      -0.10094918
C       10.99735399      22.46551402      22.83305519      -1.43190877       0.85942387       0.66857049       0.81047687       0.33947660       0.72532126
H       10.89111921      21.55772243      22.29700357       0.21914492      -1.01852703      -0.75803665       0.03946888       0.18948633      -0.11768805
H       10.60567035      22.32083954      23.84472559       0.07116224      -0.16617578       0.13441664       0.08806039      -0.09775502       0.12869206
H       11.99425887      22.87635902      22.91016683       0.44324307       0.11588641      -0.30503666      -0.06188140       0.08930445      -0.29331771
H       10.01963998      24.24548508      22.90254937       0.33688467       0.17889798      -0.39495991      -0.00374291       0.07352210       0.00503110
H       10.44879874      23.84985324      21.35398524       0.10697468       0.23181314      -0.82373499      -0.21792447       0.17411624       0.05983209
N        9.77428782      15.65959159      21.50862878      -0.66659774       0.60158587      -0.39872525      -0.28320879       0.11662289      -0.14528114
C       10.46460881      16.88647935      22.04744537       0.37656296      -0.85855628       0.23234439       0.23154843      -0.67014363       0.34219211
H        9.85141679      17.13788664      22.90685928       0.21457600       0.20864861       0.51444206       0.03125323      -0.12460826       0.27677155
H       10.43211478      17.74082654      21.37152322       0.05550318      -0.13417411      -0.40302082       0.17211804       0.29178562      -0.17636201
H       11.52700041      16.59879841      22.31943357      -1.05977408       0.35011828      -0.07154381       0.06614490       0.04793609       0.13595703
C        9.40760343      14.68652309      22.56450956       0.09521850      -1.18432691       0.62043687       0.33407221       0.23920805      -0.14029861
H        9.38293424      13.61043726      22.25324516       0.29605050       0.79648389      -0.27410692       0.32626363       0.06452074       0.29017678
H        8.44524226      14.84272505      23.04494971      -0.66643084       0.62517636      -0.41439094       0.06421341       0.02889430       0.09723701
H       10.07502140      14.79763254      23.41992841       0.66383594       0.02207103      -0.19459972       0.08923779      -0.13030762      -0.15307823
H       10.32083575      15.24426220      20.75676413       1.04313213      -0.59431532      -0.16261861      -0.03794499       0.08362149      -0.19104402
H        8.93437686      15.92640364      20.90170706      -0.19315550       0.16896704       0.79380475       0.09347022      -0.18782658       0.00290693
Cs      16.43171681      23.02243241      15.64470839      -0.09317226       0.03608134       0.10368332      -1.36767919       1.36317312       1.33331052
Pb       6.46144842      19.33757392      19.02791068       0.01930239       0.24202446       0.34389489       1.16811566      -0.15510390      -0.19099224
Pb      13.05979662      19.36347331      19.04985541      -0.02314232       0.00938558       0.02933379       0.60053225      -3.23295917       2.17594143
Pb       6.64596492      19.10941146      12.98756859       0.17521774      -0.02262103      -0.01438365       0.18507642      -1.12096561      -3.37089903
Pb      13.20618636      19.04285656      12.90943000      -0.02708098       0.20908202      -0.01061813       1.18918522       3.01913520       4.14028484
I        9.83498712      18.91632163      18.70867622      -0.04378274       0.23296141      -0.02182855      -2.32571127       1.44207690      -0.01116029
I       16.07416781      18.67867432      18.81242490       0.10104923      -0.23470235      -0.16747599      -2.07660628       0.85374025       0.14949062
I       12.55522283      15.95630986      19.15298803       0.09867668       0.19890794      -0.12263569      -1.41632281       2.54602599      -3.14985296
I       13.68067731      22.48693384      18.86751064       0.05557669      -0.09035229       0.20591813       0.19583471       0.03486491       1.29187588
I       16.39394150      19.13688208      12.66956448      -0.12256471      -0.07453567       0.12985276      -1.23192462      -2.01720537      -0.30911795
I        9.58719661      20.27175326      25.84792203       0.22102951      -0.08574916      -0.09463423      -0.74967619      -1.30946244       2.57940219
I       13.90891648      22.78478623      25.44029496      -0.11437580      -0.14281968       0.17845263      -1.47452171       0.02313421       0.32485813
I       12.42574222      16.09133350      13.63114032       0.01233930      -0.09880080       0.04544046      -0.11238951      -0.87515424       0.91513835
I       18.18867829      19.39306677      22.10076653       0.21693284      -0.02155446       0.16317281       1.75835026      -0.97017328       1.77784202
I        6.86231268      18.57693348      16.27869218      -0.05719103      -0.22808949      -0.66959382       1.17079906       2.29557992       0.25191765
I       13.55327945      20.19447314      15.93120724      -0.10891513      -0.23556115      -0.03205620      -2.01268036       0.27230505      -0.65617152
I       13.64312615      19.37761186      22.55212602      -0.00903168       0.05345619      -0.26503181      -5.56670952       1.43065858       2.78227708
Cs       8.98515028      22.23768198       3.18308468       0.08470741       0.11418456       0.05962773       3.36005694      -0.57764715      -0.76114323
Cs       3.58315051       3.39623246       9.56650584      -0.05944456       0.10124472       0.12711530       3.27518664       1.02826786       3.80311581
Cs       3.64440868      22.29934911      10.55086100       0.00300874       0.02181723      -0.14963826       1.32833399      -1.74780782       1.78895329
Cs       9.30106741       2.34332400       3.18768641      -0.05399169       0.07341950       0.06384636      -1.89788887      -0.05374111       1.88131320
Pb       0.58164868       0.52062754       6.55552852      -0.20236605      -0.25587636      -0.16772717      -4.19079887      -0.41035302      -2.76777579
Pb       6.19570323      -0.15553877       6.51008631       0.12914519       0.12867725      -0.11149929       1.06398353       0.69109744      -1.77888234
Pb      -0.00387387       0.02703931       0.02368438       0.07423688       0.14494621       0.01578064      -1.32434854      -3.21226306      -1.24058064
Pb       6.21271530       0.10894404      -0.50573234      -0.05163441       0.09234704       0.20582290      -1.49673710       0.44612898      -0.34929817
I        3.47257480       1.52635423       6.52839429       0.15788775      -0.12686748       0.02260329      -0.89266551      -2.78195166      -0.87845194
I        9.70565209      24.78261237       6.37414977      -0.18207997      -0.03046652      -0.14106136      -0.16114538      -3.10674120       0.09444349
I        5.60391592      22.56572638       7.26765498       0.01583309      -0.09379963      -0.13739885      -1.43791952      -1.82034446       1.70337693
I        7.27207465       3.29541768       6.99728054      -0.05737866      -0.06509647      -0.04240446       0.98318763      -2.56186244       0.50455460
I        9.87753858      25.01552178       0.41588891       0.03226751       0.10496831      -0.06886135       4.77742374       0.49233671       0.04570709
I        3.13235269       0.64926274      12.29463051       0.23328489      -0.04542820       0.13126396       0.53593711      -1.16771431       1.24238885
I        7.40580191       3.22853752      12.85423246      -0.10696346       0.54776927      -0.26962317      -2.74023969      -2.84818844       2.60903075
I        5.70847690      22.38581916      -0.15942473       0.03404982       0.24137786      -0.04355094      -0.53840879       2.00807727       0.73153699
I       11.61198163       0.82273505       9.78500615       0.11213557      -0.25084649       0.19146393       1.58496104       0.65741654      -3.81476290
I        1.54230136      26.11578298       3.27432731      -0.13800169      -0.26355618      -0.17348552       0.72169675       0.41036595       0.06188141
I        6.03695094      -0.31797257       3.06901397       0.00993546       0.03066551       0.08154930       3.11794378       1.00068924       0.99278728
I        7.22521217      25.49990450       9.61114079      -0.01511037       0.11475016      -0.05616785       1.97307786       1.42270346      -4.91734010
Cs      10.05387085      22.33223036      15.90129576       0.02222836      -0.20088905       0.11241778      -1.23550936       0.88848550      -2.24116908
Cs       2.62236323       3.32013614      22.04666608       0.01192190       0.03704114       0.15030901      -0.06461715      -0.98174899       1.84365445
N        3.17025841      22.31354613      22.83153774      -1.14021619      -0.08731388      -0.91050247       0.09565479       0.72807564      -0.36477458
C        3.83159857      21.15053207      22.16411941       0.77933491       0.14432079       0.02558070      -0.52518751       0.48528673      -0.38937184
H        4.85879695      21.45977338      21.83411168      -0.70218533      -0.05212369       0.16249354      -0.23956253      -0.18557795      -0.05844364
H        3.28342455      20.72147769      21.31458713      -0.31307994       0.29630061       0.16282130       0.07155988      -0.01502017       0.08437580
H        3.93857176      20.44354176      22.98447954       0.17756286      -0.59307730      -0.07992494      -0.03924297      -0.04399610      -0.22787169
C        2.67313936      23.39666536      21.91210665       0.10329121      -0.02349651       1.14132954       0.23225974       0.16795840      -0.39911106
H        1.76907618      23.01814317      21.42175719       0.10172924      -0.01477878      -0.23745122      -0.06444926      -0.03515642       0.26281533
H        3.51813396      23.53322082      21.25733786       0.10157745       0.49478932      -0.71159568      -0.04967181      -0.01848440      -0.08666633
H        2.43142753      24.30566482      22.51832083       0.28933050      -0.54332603      -0.40758220      -0.17950062      -0.03599002      -0.01504166
H        3.88271360      22.66873872      23.45653659       0.44869943       0.55051397       0.87127907       0.05558335      -0.15700164      -0.03240036
H        2.36836115      22.00523060      23.41207707       0.22478698      -0.11111069       0.18454766       0.16179532       0.02748952       0.20524574
Cs       9.45843007       3.51711123      15.79392077       0.13189535      -0.06315265       0.18556676       2.42044960       1.12428958       2.40387255
Pb      -0.02780735      -0.04005900      19.36662991       0.12824352       0.38082686       0.03419884      -2.36629373       0.55029744      -2.63448394
Pb       6.59137919       0.91377363      18.96937219      -0.03821226      -0.43480538       0.10554881       1.90246774      -2.68358214      -2.85426510
Pb       0.20440710      -0.02306793      13.08765795      -0.24613796       0.19589102      -0.25245971      -2.57237731       0.55512006       3.64907148
Pb       6.62002223       0.37119293      12.63825281      -0.13873854      -0.34069020       0.22684036       2.99877148       1.12938969      -0.58920235
I        3.37615779       0.76158217      19.17122366      -0.04682826       0.04213271       0.06548403      -0.60777009      -1.59523409       0.91611952
I        9.89583573      25.00305735      18.82151990      -0.06037449       0.06656616      -0.03348525      -1.48674619       2.40587225      -4.35720228
I        6.80499280      22.40668155      18.18709100      -0.16090943      -0.13351779       0.02458427      -0.95661488      -2.32908968      -1.19932067
I        7.45350541       3.73180725      19.13863604      -0.04580232       0.12937824      -0.11856757       2.34663141      -0.33621038      -4.51785228
I        9.96721903      25.06161830      13.57739952      -0.11151742       0.24727527      -0.09093085      -1.40068192      -0.82625637      -2.16326770
I        3.23893169       1.13422223      25.11711909       0.06757922      -0.23943401       0.10541239       3.84458453       1.05688178       2.38233894
I        7.18727890       3.35309368      25.59256085       0.04584561      -0.38566398       0.09743792       1.40272734      -0.62068453       0.26314709
I        6.69753505      22.60414347      12.65361833      -0.13907230      -0.15828996       0.22441085      -0.90893562       1.14923438      -1.56803412
I       12.41337690       0.63849212      22.74835693      -0.00232321      -0.05132024      -0.00572807      -2.28364616       0.63789337      -1.50688157
I        0.71659285      25.79916662      16.08690221       0.01499474       0.13861220       0.36432350      -2.27302061       1.45099743       1.14831645
I        5.89848589       1.01827472      15.91136115       0.06932008      -0.12779492      -0.00877864       1.97464196      -0.05065852      -2.42749423
I        6.89438822      26.78105856      22.33493702      -0.12923242      -0.24266815      -0.05065850       1.69300379       4.75457526       0.69973688
N       16.92024946       3.49404633       3.57703704      -0.85627670       0.90591475      -2.78816640       0.26155678       0.89571936       0.25093398
C       15.79880283       3.63125337       4.52222063      -0.69567643      -2.42384477       0.70346746      -0.56322737       0.09359408       0.12983680
H       16.27010943       3.75765151       5.51810197      -0.56828825       0.01873922      -0.15836073       0.27752364       0.00971757      -0.34620235
H       15.24733034       2.59122935       4.45522312       0.77914847       1.80431068       0.43239084      -0.09783097       0.13852125       0.00861994
H       15.05481054       4.39559052       4.28191922       0.34581599       0.29641401      -0.25950332      -0.18654090      -0.45969242      -0.07304399
C       16.39392669       3.23537385       2.09292501      -1.12625696      -1.04374742       1.77842815      -0.42904623       0.12996755      -0.05498565
H       16.14934628       2.16612023       1.99110765      -0.03210578       0.02914184       0.51442942      -0.00431462       0.29831426      -0.40308595
H       17.18439266       3.36355335       1.41475550       1.28337936       0.70773575      -0.96885756      -0.13091884      -0.16446121      -0.10598747
H       15.45497255       3.76516066       1.79409506       0.83140149       0.24516179       0.67496637      -0.05486099       0.00883620       0.14009033
H       17.47909063       2.68127452       3.85568088       0.41904303      -0.39922966      -0.09151964      -0.02864671       0.48901450       0.27492869
H       17.55735657       4.32101284       3.51619127      -0.42260278      -0.21014943       0.22875215       0.01257094      -0.13483207       0.06542632
Cs       9.84142234      10.01307345       9.62495703       0.02501781       0.05818117       0.09231677       1.52243019      -0.44065227      -1.14745175
Cs       9.86262923       3.87808519       9.81373456      -0.09837132       0.28897381      -0.07248008       3.07579771      -3.59155318      -0.08535910
Cs      16.21733906       9.96677139       2.66249042       0.08930111       0.02552226       0.02909033      -1.34239472       0.86601760      -2.44046697
Pb       6.60357979       6.24422183       6.80719496       0.01793456       0.23424490      -0.13792496      -0.11057537      -1.25757010      -0.12328229
Pb      13.37859674       6.67252171       6.47047421      -0.28983881       0.07755787       0.23312362      -1.44103613      -2.89373532      -0.37713812
Pb       6.73332458       6.42867087       0.10366489      -0.21597498       0.28149022       0.09558041      -4.31490409       3.02329126      -3.22715027
Pb      12.83833224       6.64698545       0.23853195       0.04162838       0.06137546      -0.07125326      -0.92393363       0.38174660      -5.01151997
I        9.84484655       7.00697443       7.40195362      -0.21854780       0.07813220      -0.09974013       1.54298048      -0.79048670       1.15888256