560
Lattice="25.822196152008562 0.11814671929263022 0.11924416191865958 0.09901908187889416 26.048535778894955 0.05362316444731445 0.005259637596165076 0.16189265323272878 25.933101135075415" Properties=species:S:1:pos:R:3:forces:R:3:momenta:R:3 energy=-2164.2138671875 stress="0.0007263619918376206 0.0003616053727455437 0.00010085885151056573 0.0003616053727455437 0.0009156649466603993 4.353565600467846e-05 0.00010085885151056573 4.353565600467846e-05 0.0006697608623653649" pbc="T T T"
Cs       9.46461894       9.82372741       2.77629310       0.00236246       0.15650186       0.10267904      -2.04684614      -1.38589992       3.54675885
N        3.36651809      16.40911441       8.84528848      -2.16178301      -1.38354326      -3.08644279      -0.26867165      -0.34620259      -0.79812188
C        4.60524024      16.30297392       9.60516689       0.41550095       1.38121914       1.20286830       0.00429701      -0.32800895      -0.01988426
H        4.79812757      17.29350561      10.10476874      -0.10750066      -0.63475135      -0.38016078       0.23677707      -0.03186423       0.13440817
H        5.41788204      16.06037806       8.93215980       0.38676474      -0.08048398      -0.20978905       0.24663041      -0.24604254      -0.24368285
H        4.53691857      15.54578565      10.41214285      -0.28938780       0.04430375      -0.43201777       0.34894702      -0.05705578      -0.00387604
C        2.08173014      16.51163458       9.62334239      -0.86862632       1.04271069       0.59326072      -0.13193922      -0.12699102       0.22894611
H        1.15391151      16.99577704       9.15356024       1.61908104      -0.23488613      -0.26806984       0.06006626       0.05568728      -0.05101061
H        2.39868633      17.19871730      10.43931113      -0.60109125      -0.66363944       0.09670555       0.07633157       0.07750412      -0.04585625
H        1.64900211      15.54715976       9.92122582       0.73122974      -0.15882729       0.39469053      -0.32886147      -0.21601333      -0.07158139
H        3.34454585      15.60083492       8.12123678      -0.18719045       0.08064717       1.21276076      -0.05963883       0.14827844      -0.18108147
H        3.24450337      17.13599727       8.09226031       0.88524635       0.69967223       0.71246489       0.11542481       0.22702725      -0.13725504
Cs       3.20079396      10.43517277       9.26222267      -0.01492765       0.03325124       0.02303648       1.74308909      -0.84660411       2.26644881
Cs       9.90597578      16.59646693       3.25660547      -0.12008164      -0.11729821      -0.01882620      -2.02200787      -0.81873990      -3.43470976
Pb      -0.25049136      13.21854772       6.50571671      -0.23090327       0.13052034      -0.22733169      -1.38665616      -1.77123180      -2.84674738
Pb       6.67381948      13.40304673       6.21546899       0.05591187      -0.17595789       0.25975032       3.89342028       6.82541706       7.42865912
Pb      -0.24705798      12.93181405      -0.00946182      -0.12999599       0.13090837      -0.04296031      -1.29120697       5.19932354      -3.07299428
Pb       6.33710702      13.07001424      -0.30301230       0.44222544       0.01687236       0.38033067      -1.68189602      -0.90180602      -1.48319460
I        3.48010459      13.53868980       6.39042351      -0.16556206       0.15393734       0.19238045       1.78940587       2.07303726      -0.06099921
I        9.69810591      12.30791564       6.64765600      -0.02935785      -0.03337704      -0.03766870      -2.02498452      -0.75641820       1.34814422
I        6.01757740       9.85596154       6.19829002      -0.02423965       0.68248255      -0.03608394      -2.61009819       0.91136741       0.93629892
I        7.57169135      16.31949341       6.67259226       0.06705669       0.10492952      -0.07937829       0.77414146       2.88043099       1.67307423
I        9.72330669      12.75472961       0.10476610       0.32131199      -0.07548225      -0.12718157       0.08224203      -2.06266379      -1.93472222
I        3.05399466      13.65687705      12.21119335       0.07603060      -0.31024106      -0.10154791      -4.47557225      -3.24925312      -0.25522632
I        7.08617503      16.58121904      12.88370674       0.15012058      -0.57986244       0.02945957       2.87226087      -2.29049227       2.91099796
I        6.68210375      10.12263813      -1.25187283      -0.18666795      -0.54723711       0.03865430      -0.25459745       1.93065233       2.33563346
I       12.10319888      13.60708708       9.76589669       0.17379077      -0.08015259      -0.25904963       2.22324625       2.51805409      -0.15928823
I       -0.50107491      13.12814392       3.16206642       0.11998448      -0.04637357      -0.27309083       1.71956193       2.86708238      -0.78503925
I        7.28521276      12.93932420       3.29994871      -0.02661655       0.06820752      -0.21952606       0.18811314      -0.57555773       0.37417008
I        6.65640149      13.10507421       9.77131770       0.01500750      -0.18764495      -0.06872844       0.98538481      -1.64321483      -3.26654965
Cs       9.75380935       9.85166397      15.96098553      -0.04803323      -0.09776817       0.06298866      -2.98677681      -3.34296182      -0.40974979
N        4.11351262      15.74216262      22.32540967      -0.29498858      -2.22334744      -0.63508984       1.26870000      -0.51831924      -0.55067837
C        5.12918230      16.76131250      21.92600387      -0.74345092       0.10812837      -0.26690830      -0.52489279      -0.11148028       1.06781790
H        5.99005730      16.59231183      22.57550637       0.28126174       0.37662813      -0.10063663      -0.03030854      -0.07000970      -0.17326111
H        4.60362063      17.72820454      22.04123148       0.54372602      -0.11099055       0.37649138       0.06267786       0.13505632       0.07628694
H        5.37999429      16.70935696      20.83627427      -0.07950311      -0.43673288       0.62177139       0.06849080       0.13860127       0.08743678
C        2.69842417      16.14341375      21.93385035       0.92712671       0.41814431      -0.86889844       0.08065721       0.85767276       0.32688770
H        2.61666793      16.36625988      20.82047350       0.30207659      -0.49189865       1.03265856       0.01631029      -0.23882470       0.13061073
H        2.55211725      17.09617715      22.43673591      -0.44013023       0.09722473       0.30763869      -0.06543778       0.16884378      -0.10921804
H        2.00213471      15.36679561      22.23053674      -0.18366816      -0.11915842       0.13195071       0.22832657      -0.14275148      -0.02257056
H        4.14833016      15.46759701      23.34866910      -0.08395687       0.71317147      -0.35008062       0.12977632      -0.11195912       0.05321791
H        4.33997133      14.75418245      21.92740791      -0.33724617       1.49891806       0.01572302      -0.01290002      -0.02259151       0.09648271
Cs       3.32023573       9.95681699      22.39515967      -0.05655270       0.04554279       0.03455994      -0.07469082      -1.37455957       0.89295133
Cs       9.59863399      15.36527602      15.74399005       0.03713699       0.15205264       0.05831801      -2.53282190      -0.76838332      -3.15524332
Pb      -0.38803727      13.26601551      19.20944017       0.55318286       0.08141414       0.07146365       1.09531207       0.00277780       1.76417943
Pb       6.66067943      13.18767304      19.49767401      -0.09822432       0.10264576      -0.10657316       0.62101478      -3.37354772      -3.07362336
Pb      -0.21450659      13.17980934      12.56498003      -0.17314414       0.26986389       0.11491640       1.25391618      -1.82865480      -0.16127831
Pb       6.23433133      13.28542405      12.82351126       0.07927957      -0.20563898      -0.04617309      -3.02364038       3.47180906       1.62917526
I        2.99826672      13.47155745      19.52093518       0.26764553      -0.10085568      -0.11224176       1.05413954       1.00502919      -0.38169607
I        9.73178730      12.86804838      19.08937010       0.07903884      -0.20624808       0.00865505      -0.07858357      -0.73931729       1.04890073
I        6.11748870      10.09450172      19.73552549       0.02789754      -0.12393135      -0.02211395       0.02783982       0.26546420       1.78854738
I        7.91380042      16.45222296      19.19436067      -0.17011348      -0.01887260      -0.06355458      -4.53152463       4.17361712       0.62526958
I        9.44305727      12.34881545      12.74236414       0.00765885       0.20369429       0.14266734      -0.17694059       1.57008804       1.71087521
I        3.44601406      13.59621727      25.34286696      -0.60592049      -0.03994908      -0.13056821      -2.84468130      -2.15909233       0.08953221
I        6.72287026      16.28682692      26.26901331       0.10698677       0.35682849       0.00013677       0.63316772      -0.62939810       2.85613767
I        6.24684692       9.90757406      12.98686398      -0.06627267      -0.05258428       0.01675376       2.55190119      -1.37180664      -1.18534840
I       12.67931461      13.82621942      22.22025725      -0.12678826       0.04154036       0.49589985      -1.05287483      -4.98497418       0.01336139
I       -0.62823699      13.52365837      15.95176696      -0.03348024       0.01953255       0.03076122       0.99356854      -0.83183070       0.67785900
I        6.72368679      12.84111118      16.26627157      -0.11396468       0.10784734      -0.08333261       1.87867723      -3.47491126       0.61059325
I        7.24893642      13.37902461      22.74346156       0.01579354       0.24590790      -0.43748131      -2.18733430      -0.69213372      -5.90933671
N       16.66159353      15.22569549       3.23677131      -1.10057040       0.65482950      -0.03302659      -0.12260468       1.15389971      -0.02276698
C       17.87826648      16.09123888       3.12942631       2.47124988      -2.78728809      -1.29489158       0.19678211       0.53647827       0.18714688
H       18.47758780      16.09046704       4.07114034      -0.87451523       0.33084807      -0.23598520       0.14932315       0.00632271      -0.31594046
H       17.80288980      17.02902407       2.62362137      -0.94460915       1.03850178       0.07194179       0.20905708      -0.13036961      -0.09561679
H       18.55412813      15.49066297       2.38366007      -0.84065050       0.82681339       1.15951415      -0.11726684      -0.01006230       0.22799585
C       15.42349333      15.90644146       3.74988406       0.47130452       1.47341300      -0.33951089       0.85132616       0.67290836      -0.00122167
H       15.44830519      16.92349688       3.26720245      -0.55772513      -0.97832408       0.19546854      -0.08872184       0.02416157      -0.11376551
H       15.54953444      16.06866497       4.79320266       0.28005801       0.23223005       1.15110419      -0.16480003      -0.02240505      -0.22569466
H       14.51306623      15.31174287       3.64021402       0.11991624      -0.00791600      -0.55887216       0.16381002      -0.09745583      -0.25913387
H       16.91556358      14.45021628       3.86836432      -0.12740734      -0.50268158      -0.11408628       0.01155142      -0.00305175       0.17369463
H       16.32282562      14.85640350       2.32854221       0.82238179      -0.19005933       0.01206577      -0.02408404       0.13024660       0.08643259
N        9.86590322      22.42014022       9.80011733       0.57777359       3.70125161      -0.28713470       0.49917355      -0.00801281       0.22918690
C        9.14064089      23.79334880      10.07414431       1.96209235      -0.93654045       0.43524391      -0.04982356       0.85596703       0.48968888
H        9.91200063      24.61321326      10.14753424      -0.72303241      -0.77596246      -0.54162065      -0.00044084      -0.12940777      -0.07179653
H        8.68051462      23.72402506      11.03751586      -0.51761050      -0.17916526       0.74058463      -0.11083603       0.03558036       0.15473624
H        8.40643944      23.84937561       9.32155413      -0.81996773       0.68377114      -1.17210620      -0.18307715      -0.00906924       0.00145645
C       11.06051780      22.64021744       8.94087150      -0.02417308       0.88750142       0.44331864       0.74906761      -1.39569802       0.41625676
H       10.78062867      22.59862080       7.90411482      -0.25928782      -0.19266696      -0.67232635       0.07727350      -0.08968113       0.00678206
H       11.81004268      21.93409662       9.20992387       0.63392744      -0.99356217       0.02079947       0.06100126      -0.08016491       0.31956489
H       11.51647122      23.63159653       9.13424916      -0.46920151      -0.22205686       0.18431680      -0.05651864      -0.16019338      -0.20484363
H        9.24220876      21.74167434       9.42247793      -0.94727780      -1.00639214      -0.58310726       0.04408889      -0.39154957      -0.03259137
H       10.16802630      22.12100634      10.70045248       0.49895757      -0.91439980       1.47627925       0.04706499       0.05247601      -0.04078914
Cs       9.74240732      16.62651609       9.69531295      -0.12472579       0.04133452       0.20131152       2.71559363       0.03109301      -0.99478295
Cs      15.87919015      22.49780489       3.06903214       0.04983422       0.02637020      -0.03777461       0.55725981       0.97487248      -1.17486336
Pb       6.34656784      19.79461170       6.48099873       0.20322944       0.06300929      -0.03277591       2.78882097      -1.53159115      -2.15676911
Pb      12.71444433      19.71112364       6.30791972       0.09761730      -0.14702534       0.45730468      -1.31992206       0.26627864       2.95958188
Pb       6.64975736      19.36179851       0.04958813      -0.06451274       0.13505943       0.16251625       2.81301607       0.50608204      -2.19989055
Pb      12.75331586      19.51919450       0.31426077       0.09533125      -0.19821086      -0.14004429       0.35107655       3.43654309       2.10067566
I        9.51844752      19.89822953       6.88081041       0.06102713       0.03246123       0.05540652      -2.10915396       4.90336592      -1.12757395
I       15.88588419      19.04585236       6.29512728      -0.05431456       0.05946661      -0.01091481      -1.42064259      -0.13134540      -0.16960972
I       11.88403500      16.45157656       6.73303528       0.31122481      -0.03997933      -0.22097264      -2.50509470       0.24715172       1.00330397
I       13.16481229      22.86756534       6.03603926       0.22880983      -0.08966523       0.00897588       2.41517769      -1.48899770       2.56667523
I       15.92308427      19.56899375       0.27315133      -0.03560949      -0.21536550       0.07282997       0.37301040      -1.40949952       3.05527342
I        9.77849503      20.25805567      12.60098049       0.04875158      -0.12114480       0.13338503      -0.02991596       1.03562648      -0.13452946
I       12.85473819      22.93565846      12.66146322       0.13292345       0.03911621       0.01006694       1.48629161      -3.12592514       0.31800376
I       12.26510565      16.30659148       0.11850737       0.13320179      -0.15323435      -0.06554538      -0.68056031       1.26958467       1.60600879
I       18.65335543      19.54949896       9.97299987       0.11701260       0.08430574       0.02191729      -2.17144122       1.16788010      -2.23621625
I        7.74979594      20.02433715       3.28238371      -0.29667365      -0.22450636      -0.10201014      -0.67141475      -0.08169910      -1.76397637
I       12.09547227      19.81647141       3.42339950       0.13222787      -0.12087115      -0.42112861      -3.01221936       2.14581206      -2.21275576
I       13.77607261      19.06677318      10.44907714      -0.05267287       0.18498096      -0.43672627      -1.44851676      -0.06471750      -0.50463920
Cs      16.14721050      15.79462055      16.77606917       0.00656854       0.01779277      -0.20266871      -1.68593195      -3.80415694      -1.52268252
Cs       9.64038983      23.16244895      23.19966998       0.07457739      -0.16354748      -0.09296925       2.91684472      -2.52089398      -1.67593581
Cs       9.78443732      16.48638851      22.29194690       0.11563881       0.03499294       0.19339984      -1.05974644       2.06533820      -1.24324102
Cs      16.24268292      22.83335643      16.44978044      -0.07547524      -0.01004046      -0.01045628       0.18291401      -0.55501657      -3.41120176
Pb       6.83525834      19.84604162      19.72636758       0.01702202      -0.18159110      -0.27603643       4.52934788      -0.67579243      -0.27727941
Pb      13.19535776      19.68796177      19.41383262      -0.05098579       0.07865162      -0.35031729      -4.59798249       0.60422142      -3.79883413
Pb       6.54532887      19.52257846      12.74392954      -0.03134927       0.46173044       0.35025801      -0.27142925      -1.55393339      -1.03122324
Pb      12.78344756      19.52538100      13.16087903      -0.11595856       0.07627672       0.31180699      -1.15284485       2.05258751       0.80592380
I        9.80046396      20.40847429      19.30530662       0.20238333       0.07062447       0.23575058      -1.27316304       0.33548963       1.23086735
I       16.40374603      18.63307913      19.14623364      -0.15405696       0.17981529      -0.01346032      -0.68336812      -2.75810583      -0.81254960
I       12.43334842      16.53290578      18.59269413       0.12722789       0.06521074       0.10058560       0.76049527      -1.25819665      -2.41692287
I       13.63288503      23.00360975      19.74077240       0.03769096      -0.13407510      -0.01727052      -0.70441096      -0.93947407      -1.45772523
I       16.46023680      19.46582822      14.43941567      -0.11740166      -0.04312866      -0.05047578       0.35662350      -1.70617867       0.75844541
I        9.72469818      19.37269768      25.36250814      -0.02730558       0.13363212      -0.10681715       0.96987558      -4.20903769      -0.46127011
I       13.22212863      22.69998658      25.60981470      -0.08031267       0.42971409       0.00855160      -0.32489437       0.99124097       3.93621315
I       12.14736369      16.44889411      12.76181922      -0.09147767      -0.08009578       0.22995482       4.50307973       2.10439001      -1.85213032
I       18.56298828      19.56468286      22.65033943      -0.06321870       0.01842664       0.15229922      -0.15529755       0.80061756       1.26567864
I        7.40973110      19.53356655      16.23915684      -0.07948188       0.06135255      -0.07737364      -0.51266484      -2.12293031       0.19369966
I       12.74691623      20.63121406      16.22425710       0.08694738      -0.00722192       0.15523323       0.02629896      -3.40777862       1.14352868
I       13.06498438      19.53349682      22.39416718      -0.07967905      -0.00380424       0.30697807       1.11562913      -1.05003861       2.42139197
Cs      10.05484436      22.88814134       3.64650845      -0.16678818       0.22257726      -0.04018136      -0.84499608       0.43940303      -0.28717182
N        2.88865011       2.36926393       9.43509886       1.80507253      -0.07310666       1.06343953       0.15851308       0.40430278      -0.80368632
C        2.87331961       2.82338551      10.88185782      -0.02458110       0.80214814      -0.39518488      -0.29972503       0.97596839      -0.27128880
H        2.32559755       3.79521572      11.03804473       0.60122549      -0.68755137      -0.56184540       0.00674536      -0.03586672       0.01605451
H        3.92668396       2.87078876      11.14523467       0.22701576       0.54505512       0.30880385      -0.05309573      -0.27636364       0.26817278
H        2.43720968       2.10609930      11.58036693      -0.29184990      -0.38315339      -0.41213616       0.06747202      -0.09548842       0.15956877
C        3.28076788       3.47833604       8.43675333      -1.24703831      -1.20744424      -0.04690051      -0.83944998       0.55716795       0.75545688
H        4.31299195       3.89398194       8.71426670      -1.32388622      -0.79123782      -0.75876976       0.23224702      -0.15207690       0.00341940
H        2.48216063       4.22998533       8.51120793       0.32002057       0.36000083       0.35038446      -0.14851033       0.00471697       0.08249775
H        3.01389659       2.96210313       7.45493433       1.37281789       0.81064076       0.61465715      -0.17376098      -0.27493800      -0.12331077
H        2.06323982       1.80736958       9.24457455      -1.42139431       0.21943792      -0.58495468       0.10931174       0.33744926      -0.27746133
H        3.60864930       1.58227355       9.35983194      -0.02753877       0.79316067       0.13745630       0.09592361      -0.25253229      -0.06096199
Cs       3.10804998      22.85553200       9.69104278      -0.00498391      -0.02098822       0.05089222       0.58318212       1.66336233       2.98966961
Cs       9.41021494       3.34431175       3.28537091      -0.11042629       0.04601259      -0.16179080       0.92128018       0.97504763       0.52404576
Pb       0.17674308       0.09921046       5.82790650      -0.23564960      -0.07303927      -0.00586123       2.30433820      -0.83529492      -1.15055168
Pb       6.44929614       0.47261912       6.11805850       0.10507853       0.01569837       0.12821885       0.98861061      -1.95864246      -3.29125393
Pb      -0.15841750       0.14261035      -0.30148848       0.10051529       0.04300997       0.07196366      -1.21053326       6.81136551       0.05153636
Pb       6.67757798       0.22359881      -0.08014429      -0.22207386      -0.03357973      -0.26525491       0.09741925       1.93183209      -4.45095502
I        3.38066476       0.17930321       5.89174926      -0.24611218      -0.03124122       0.03791091      -0.92202859       1.18342083       0.28860215
I        9.73592198      25.96379398       6.02374653      -0.09455390       0.04344922       0.00856121       1.01397604       1.84916936      -0.33322655
I        6.47457375      22.84175789       6.31838790      -0.11120674       0.10240621       0.05992896      -3.35439279      -0.46931860      -0.77926383
I        6.58155341       3.64119381       5.82541422       0.03219941      -0.22520770       0.08232841      -0.67097724      -2.46112654       0.83126906
I        9.87523615      25.50387747       0.12413415       0.12003600       0.10112612       0.00302615       0.08594383       0.13705103      -1.44268377
I        3.20839278       0.61859229      13.57092260      -0.21196422      -0.17972457       0.10811125      -1.69854364      -0.65386664       0.76250672
I        6.55595822       3.20103466      13.60998140       0.06921203       0.09499714      -0.15205702       1.93811811      -3.07867585      -1.25396442
I        6.44792442      22.78482317      -0.20254163       0.11692590      -0.00722007       0.15014017      -1.37397899      -0.01868022       0.50149016
I       12.66551109       0.62988503       9.53593148      -0.04877498      -0.03711760       0.32588678       2.75725605       2.56877304      -0.95274411
I       -0.91394088      26.13104514       2.90746650      -0.00785550      -0.01872837       0.15980163      -0.21241055      -1.52245687       1.04720321
I        6.73461806       0.21320694       2.94297117      -0.02332076       0.03197020       0.36699567      -0.20278851      -2.55507978       0.38838543
I        5.96715837      26.19475224       9.76872478      -0.12247946       0.00625877      -0.22147353       0.41561448      -3.14004522      -2.43297814
Cs       9.64474478      22.75998274      16.09583018      -0.04538564       0.04968928      -0.00359125       1.52291249      -0.70263491      -0.56144052
N        3.61980343       4.45172771      22.25596283       1.21382469       0.84413357      -0.41998532       0.53294340      -0.10732967       0.35518771
C        2.38841735       4.01237040      22.95751835      -0.27658307       0.93358149      -0.92326185       0.09734552      -0.00459685      -0.11442360
H        1.85276541       4.95293987      23.14498960      -0.12064412      -0.35743313       0.99497839      -0.08365166       0.13558042       0.02960473
H        2.77337843       3.38688190      23.74433677      -0.54748422      -0.13221527       0.93640847      -0.00031402       0.06227048      -0.25954664
H        1.70968795       3.44284485      22.28834081       0.61200512      -0.07418878       0.05436020       0.18803803      -0.27064631       0.09804432
C        4.44096073       3.22830299      21.90958271      -1.07600591       0.18016886      -1.12395611      -1.24798926       0.05703296       0.41451482
H        5.30731546       3.47247674      21.21530367      -0.92587552      -0.29200921       0.88582668       0.07896643      -0.01921165      -0.14673212
H        3.66628722       2.56506543      21.43363596       1.04651751       0.13416778       0.06580341       0.13604287       0.19393177      -0.11526440
H        4.68683808       2.80796268      22.89285579       0.53840969      -0.19112268      -0.28819727       0.11576485       0.10921149       0.11933584
H        4.29863889       5.05056910      22.86408550      -1.18905830      -0.33832766      -0.61042320      -0.03273865      -0.00154338       0.05975609
H        3.32576127       5.09371461      21.45313605       0.67871461      -0.85326879       0.32021168      -0.12666760      -0.02430269      -0.09269643
Cs       3.68066548      22.81686113      23.13584893      -0.08194596       0.04070309      -0.07701460      -0.95613908      -2.11261854       2.27596761
Cs      10.21052723       2.68360057      16.26527045      -0.11033100       0.09632370      -0.01397033       1.06210545       0.46603121      -0.12004612
Pb       0.05724744       0.61617940      19.24539018       0.07546054      -0.22262771       0.01280562      -1.37241662      -0.26653818       3.09312927
Pb       6.65544482       0.04162026      19.28001684      -0.07219502       0.03384648       0.00564305       4.63919305       0.65083221      -0.27404669
Pb      -0.03508696       0.36607742      12.79389745      -0.14034154      -0.04085450       0.10797026      -1.70780699       2.47514691       3.92142376
Pb       6.05773792       0.16182935      12.85971837       0.35269544      -0.14806240       0.02271709      -1.30363282       1.01619814       1.27387528
I        3.47383531      -0.01115398      19.64506658      -0.10273490       0.13181197      -0.06334180       0.62365245       0.68949724       2.41602370
I        9.97859110      25.91006744      19.54890903      -0.09077854      -0.04872670      -0.05170398      -0.54328780       0.50186703      -2.85109422
I        6.13100302      22.79192221      19.45496307       0.06128286       0.15313175       0.06173859      -0.20225050       1.32426510       0.51335137
I        6.86915209       3.34705928      18.45695265       0.13931406      -0.10429357       0.24181857       0.53026295      -2.25875682       1.26405635
I        9.68458527      25.92701302      13.69585469      -0.06895299       0.01556274      -0.10245817       0.47393599       1.96327195       0.03633971
I        3.25872060       0.25871513      25.49898273       0.01563119       0.09337022       0.00392102       0.86453217       0.06237126       0.01667108
I        6.28549217       3.67812779      25.72175612       0.07079808      -0.07517145       0.14092983       0.52794475       2.62947695      -1.10558696
I        5.98376039      22.80169971      12.77093777      -0.04162334       0.14028731      -0.03179265      -2.14884454      -0.31299591      -0.35666763
I       13.14910710       0.24084316      22.58435583      -0.03165296      -0.02460449       0.34288356       0.93326236      -0.87580020       2.15395203
I        0.36935681      27.12826201      16.17503651      -0.10488838      -0.01909100       0.04271834       1.58708691      -1.52926422      -1.88862566
I        6.31433711      -0.36948422      16.16184402       0.15257951       0.00671266       0.14414958      -0.31311374      -1.70793192      -3.92906396
I        6.87398953      25.64752646      22.75945043      -0.04455520       0.00126452      -0.22210152      -1.82500031       0.39353216       1.85901262
Cs      16.24647090       3.05585007       3.09068769      -0.02184019      -0.00510953       0.09963376      -1.24975822       2.19069119       4.06191975
Cs       9.29241397       9.86372184       9.53786756      -0.01405275      -0.00718679       0.09473524       0.41294447       1.10853886      -0.74676708
N        9.73616494       4.47566970      10.58193805      -1.22564216       1.29531694       0.61673302       0.65121419       0.61127907      -1.20280761
C       10.52372705       4.04172956       9.46868876       1.59059461      -1.39224823      -0.94597565       0.04561479      -0.24415541       0.59940759
H       11.41097173       3.44391332       9.76222751      -0.39281599       0.37363574       0.06502147      -0.17835622      -0.02023053       0.25123918
H       10.82587123       4.92572846       8.95166906       0.58999047       0.75608013      -0.52972819       0.06066584       0.05552133       0.04144101
H        9.96800249       3.45939031       8.72535898      -0.37026475      -0.20612864       0.38970024      -0.05128894      -0.15791398      -0.20617907
C        8.46951754       5.10633529       9.95815007       0.59799978       0.30678550       1.12981360      -1.10830682      -1.14162831      -0.00596012
H        7.74467180       5.24924523      10.78179749      -0.07937180      -0.41306974      -0.36875764      -0.17879176       0.35219287      -0.13956945