960
Lattice="27.089173641048188 -0.030141818540191538 0.09334255040960797 -0.03695538481721368 27.867578131064203 -0.15891017859060017 0.0879568401690027 -0.14145660898969034 26.703508677429863" Properties=species:S:1:pos:R:3:forces:R:3:momenta:R:3 energy=-4267.771484375 stress="0.00030482508009299636 -0.0002676518924999982 -6.364146975101903e-05 -0.0002676518924999982 0.001536244875751436 -7.870905392337592e-05 -6.364146975101903e-05 -7.870905392337592e-05 0.0004506668483372777" pbc="T T T"
N       10.30895417       9.69500604       3.29634175      -4.39010245      -2.54661425      -0.88975581       0.14705251       0.34245651      -0.34417776
C        9.05169960      10.61103053       3.07298596       0.88962929       0.15770512      -1.68128107      -0.47542372       0.19067092      -0.84457622
H        9.44144291      11.51287619       2.44210488      -0.92274913      -1.53724667       0.84644171      -0.17409239       0.01915310      -0.32764006
H        8.70238055      10.97242545       4.05429111       0.13633059      -0.15621831      -0.15983632      -0.03826240      -0.18189485       0.12518447
H        8.24017828       9.96368475       2.56005667       1.23760722       1.13039595       0.67667864       0.14966116       0.02071206       0.46869092
C       11.49156107      10.32114520       3.67675232       2.46488964       1.14105542       2.00670755       0.39647745       0.60129764       0.60224769
H       11.38461155      11.40428451       3.59178859       0.22164057       0.08303727      -0.38635403      -0.17621539      -0.16722116      -0.13549574
H       12.37794188       9.90052252       3.14929307      -0.48602066       0.43232321       0.22597500      -0.21138301       0.31222093       0.08025891
H       11.60238989      10.13392302       4.76016713       0.42952133       0.12612357      -0.12207266      -0.09304348       0.06583699      -0.17645569
H       10.52458657       9.06619133       2.47228074      -0.67036184       0.59855713       0.39224346      -0.09454445      -0.19200100       0.15244902
H        9.89528846       9.02896103       4.03768590       1.08429806       0.48150406      -0.84714847       0.22010986      -0.01292650      -0.09701211
N        4.19659917      17.79010437      10.02287342       0.04170790       0.28388942       0.52610704       0.70708394       0.44246387      -0.44331654
C        2.87384421      18.02036131      10.71005084       0.34123850      -0.30436243      -0.81392011      -0.64115746      -0.00322498       0.75340883
H        2.63427531      17.14286351      11.33394733       0.05853790       0.04568541      -0.27893069       0.19029226      -0.07504101       0.02786147
H        2.18468482      18.12185487       9.84996219      -0.27904316       0.18641062       0.69816708       0.11674606       0.13558787      -0.03070193
H        2.95200137      18.89247386      11.35303845      -0.08213160       0.35388533      -0.00245871       0.13100872      -0.12907866       0.25426916
C        4.11451789      16.69942025       9.05643214      -0.06169527       0.56378621      -0.74340945      -0.70169294       0.50602796      -0.02864949
H        3.34861416      16.91394133       8.31163854      -0.33091698       0.01883310       0.07013641      -0.19659816       0.01574628       0.24876473
H        3.95211248      15.79183930       9.57508358      -0.51333641      -1.17857640       0.66470869      -0.06800034       0.10218085      -0.39653098
H        5.04288347      16.61144033       8.53985968       0.94042083      -0.00470717      -0.48881014       0.05115397       0.31896299       0.00975722
H        4.92693198      17.57615184      10.73250381       0.13048508      -0.03792057       0.32049558       0.00734392      -0.22888327      -0.23428299
H        4.56481713      18.64408452       9.56495076      -0.27391658       0.20936783       0.06680691       0.05799741      -0.10406256       0.22614302
N        3.33690366       9.63309573       9.40117719      -0.87991718      -0.59730086      -0.63775581      -0.14005463       0.43695342      -0.14459706
C        3.87169903      10.05008052      10.70463399       1.24918620      -1.32453064       1.62069993      -0.32504022       0.96224080       0.13447866
H        4.48760745      10.96325225      10.65820347      -0.32869343      -0.04939216      -0.31737029      -0.37576433       0.40443120      -0.08591392
H        4.54720415       9.24204930      11.16820680      -0.89130277       0.83205348      -0.74743048      -0.03878875      -0.18308171      -0.00831696
H        3.01846211      10.16185526      11.37091712      -0.14372187       0.37497742       0.19171687      -0.01308045       0.28225457      -0.38551357
C        2.74843691      10.78262333       8.70237394      -1.29744941       1.76904946      -0.40822207       0.35094359       0.15153717      -0.48644457
H        3.40472802      11.68815094       8.72655232       0.04264412      -0.77587995      -0.14974372       0.21357169      -0.05739813      -0.13719321
H        1.83259119      11.11208689       9.29431513       0.74457764      -0.53419288      -0.67170210       0.09853132      -0.20928588       0.02670095
H        2.45362567      10.53306747       7.64254267       0.27025757       0.14271340       0.93925949      -0.27431534      -0.03959634      -0.15337430
H        2.49348179       8.96712173       9.49979701       1.32679347       0.19583529       0.14109049      -0.17314743       0.07037663       0.01382695
H        4.06938820       9.18139171       8.81728407      -0.15743888      -0.09378299       0.14391050       0.13843543       0.02178203      -0.13238878
N       10.86547878      17.35547155       2.77185881      -0.50155826      -0.84456775      -0.83320572      -0.19444648      -0.22870598      -0.04597430
C       10.43683013      18.66914693       3.29180261       0.33702121       0.34192264      -0.35089986      -0.33561383       0.23036724       0.05606998
H       11.36043593      19.25215035       3.25251746      -0.29621031       0.67481039       0.14403207       0.03161845      -0.01254302       0.07954048
H       10.15353886      18.49197858       4.30075508      -0.31201280       0.06462372       1.17606703       0.11824121       0.18013232       0.09513123
H        9.61344630      19.16035783       2.75305397       0.17788159      -0.36830392      -0.22285747      -0.20573634      -0.07931348      -0.35089690
C       10.11106697      16.13839323       3.28910172       0.82338050      -1.30480808      -1.09921691      -0.42227010      -0.35991062      -0.38839993
H       10.38823950      15.90567447       4.34117327      -0.13601422       0.44619035      -0.39310401       0.05476259      -0.14973671       0.10198581
H       10.35884934      15.16424549       2.66518264      -0.40118036       1.99688271       0.91355185       0.31796346       0.12585294      -0.05909770
H        9.06015851      16.39462386       3.18637939      -0.31243656      -0.11801211       0.08424210       0.07040970       0.19670754       0.23245213
H       11.83732289      17.30367298       3.02795952       0.98957404      -0.59365285       0.45177496      -0.07280789      -0.41465320       0.16642574
H       10.95643706      17.39484751       1.72953644      -0.35086756      -0.21961487       0.11856580      -0.13484878      -0.02825130       0.31859770
Pb      -0.02404525      13.86514324       6.84156360       0.05327868       0.29069833      -0.45512447      -2.45905543       1.57411180      -2.16299868
Pb       6.92525622      13.99636589       6.94988126      -0.11192064       0.14148255      -0.17474097      -1.06512651      -0.02591978      -0.62848276
Pb       0.24399495      13.75865881       0.17487777      -0.18553104      -0.15134032      -0.27880371      -0.62735406      -1.82505706       2.27660958
Pb       6.39342146      14.07822256       0.13317091       0.30572436       0.04704350       0.08394289       0.64302686       4.11550176      -1.25969320
I        2.97793808      13.84257363       6.19438752      -0.02348553       0.04058265       0.23668047       2.99454253      -0.98179593       0.39592863
I        9.98108924      14.05262699       6.65395851       0.03787762       0.08728228      -0.01317509       0.90550144      -0.52865351      -1.79405553
I        6.10212735      10.78770204       6.52909596       0.10501840       0.00268090       0.01734919       2.68464663       0.75698045       1.45954599
I        6.99517696      17.34149364       6.10166586       0.00579113      -0.03106750       0.23129940      -0.23387095      -4.13000937      -1.14867336
I        9.64007974      13.92009950      -0.03064950       0.18117725      -0.12052661      -0.15337187       0.45482757       1.44634171      -2.40867789
I        2.97713807      14.13104068      12.50396348      -0.07279821      -0.00823766       0.17273816       2.39375439      -2.86225794       5.34928481
I        6.47904954      18.24878451      12.66330329       0.03333535      -0.07270956       0.07246320      -2.06680449       2.54058236       2.43925104
I        5.94958030      10.18350834       0.31919102      -0.02292257       0.02423070      -0.10863581       1.43630921      -0.08737894       1.84692127
I       13.19813788      14.56056573       9.42020138      -0.03119411      -0.02685801      -0.04477252       1.41136666      -4.07320123      -0.40042603
I       -0.31104020      14.25707019       3.13079819      -0.01323109      -0.07221989       0.26419209       0.74816766      -0.23197636       0.72238113
I        6.69494006      13.75467303       3.18266177      -0.10726198       0.12029021       0.05345094      -1.53484074      -0.61141719      -0.72973088
I        6.47251135      13.86258238      10.16768219       0.10529990      -0.14860938      -0.12157386      -1.92190455       1.99451276      -0.12300762
N        9.69186834      11.22214716      16.50281508       0.47942513      -0.03335695       0.57530359      -0.78230140       0.52403897      -0.20777211
C       10.51526735      10.91277730      15.26723411      -1.95400555      -0.91478513      -0.45471213      -0.70995338       0.44523855       0.69546489
H       10.56960071      11.82633462      14.71454122       0.50810820       0.70085579      -0.38727025       0.04797169      -0.04641016      -0.02541421
H       10.01383561      10.14942441      14.59655905      -0.15785689       0.69596612       0.85189395       0.19819531      -0.11018417       0.06194176
H       11.44447309      10.44343344      15.47845222       1.18561344      -0.04935536       0.78339646      -0.02316369       0.17855036      -0.19419883
C        9.40726553      10.01956087      17.42379219       1.82753510       0.81581112      -1.34888221      -0.47273457       0.10283850       0.97565235
H        9.47763883       9.15696102      16.79527039       0.33093454      -0.73280352      -0.50555482       0.04161133      -0.24716968       0.23460517
H        8.43342855      10.00940073      17.78621588      -1.82332380       0.50037944       0.89444085       0.10329146      -0.09436403      -0.18725950
H       10.18527736      10.01695236      18.19752556      -0.22824666      -0.08783610      -0.03600062      -0.18621347       0.04941022       0.03146959
H        8.87046194      11.80824496      16.23225580      -0.33291890      -0.69128530       0.01381262       0.23902627      -0.20075882       0.09548810
H       10.18053612      11.92122540      17.12494288       0.14775685      -0.27818302      -0.29817050       0.14957226      -0.14617878       0.17189239
N        3.32115221      17.51770428      23.58094544      -0.67094007      -1.39805141       0.54915235       0.33558141       0.19552565      -0.64242066
C        3.46109617      17.35165764      22.11247461      -1.42391325      -1.43112193       0.88282615      -0.96872723       0.08673102       1.13277300
H        4.15095364      16.55331658      21.91798516       0.67840443      -0.38971906      -0.25336021      -0.15862288      -0.24488708      -0.02210647
H        3.73694408      18.29590618      21.73297083       0.39669132       1.06597322      -0.97808300      -0.04215247      -0.15374423       0.20205572
H        2.44839578      17.01291061      21.80163407       0.47140830       0.32655816      -0.37834065      -0.15996217       0.17001196      -0.14070448
C        2.70447027      16.34701854      24.32279220       1.07498986      -0.58229638      -0.20377386       0.38956206      -0.12193634      -0.73320220
H        3.27294722      15.43731351      23.98123240      -0.54098639       0.60335959       0.09112229      -0.02439033      -0.13016594      -0.01814006
H        1.62475563      16.24209862      24.06364025       0.58029010       0.21476167       0.19209878       0.15143725      -0.14953618      -0.15048763
H        2.92522267      16.43002337      25.41495951      -0.44359032       0.21373092      -0.67640730      -0.10295618      -0.03557633       0.03452895
H        2.72467251      18.30450774      23.65583251      -1.28129565       1.35013905       0.48935691       0.18314213       0.06100060      -0.24654929
H        4.16705024      17.82891236      24.05209198       1.13169953       0.02305506       0.18096766       0.07571592      -0.05952739      -0.06499467
N        4.20496525      10.00473424      22.82470686       1.10624121      -2.07598618      -0.55267699      -0.29296031      -0.50583827      -0.31682037
C        3.57765271      11.26714472      23.14643486       0.95705781       2.00858466       2.11053402      -0.36235209       0.56600153      -1.12954357
H        2.87724366      11.61114009      22.34287336       0.57047398      -0.27046762       0.64079537       0.12452020       0.06335732      -0.14486228
H        4.47497278      11.93423538      23.34366131      -1.04254288       0.09823864      -0.89861911       0.00117904       0.27205425      -0.12171171
H        3.16113675      11.29300828      24.19511802      -0.35230940      -0.58255824      -0.99125011       0.08208742      -0.02945305      -0.04316636
C        3.26479113       8.83328125      22.80682892      -0.14170575      -0.49044709       1.31457726      -0.21520548      -0.53194033      -0.09288662
H        3.00513982       8.58204952      23.88473506       0.26090453       0.28775648      -1.03013320      -0.08315559      -0.38627080      -0.14258217
H        3.73449529       7.94818760      22.34262408      -0.00614725       0.38901375       0.07588008       0.24032950      -0.08570929       0.06362503
H        2.34715328       9.09757172      22.29357332      -0.16825227       0.23626938      -0.32484621       0.12429892      -0.04770202       0.02584961
H        5.01954532       9.68145545      23.47049037      -1.18085388       0.97537268      -0.93546512      -0.17083988       0.22273746       0.05034648
H        4.63918505      10.15809788      21.85022432       0.03538129      -0.58719931       0.59863600      -0.17108998       0.16193885       0.02110644
N        9.88929820      17.79618692      16.77696464       0.54383904       1.16144261      -3.58593888      -0.00103492       0.03962149      -0.27570263
C       11.09388668      16.98428245      16.33712175       0.55661015       1.17109456       2.69782590      -0.40246362       0.14763234      -0.42869988
H       10.93838329      15.93175735      16.47362362      -0.35371501      -0.73243687      -0.15140693       0.12010359      -0.13929735       0.26141672
H       11.93180701      17.29721340      17.02963324      -0.62720064      -0.33030521      -0.67741707       0.10146684       0.16883916      -0.03500776
H       11.31319228      17.30759768      15.35477963       0.33280849      -0.01434052      -1.37338415      -0.23646536      -0.03212488       0.16936523
C        8.64426021      17.44034384      15.93949503       0.56355676      -1.41109698       2.36798373      -0.07728435      -0.28790243      -0.73327529
H        8.91851811      17.44533104      14.92238954       0.32641812       0.55489322      -1.47972784      -0.29558840      -0.08329636      -0.03368348
H        7.87455212      18.13039220      16.25431577      -0.44852405       0.20793399      -0.20535875       0.11488812      -0.01857374       0.16728410
H        8.37937940      16.36668042      16.15844639       0.04957614       0.88618883       0.16714504      -0.01982512       0.08210412       0.02358600
H       10.16886037      18.79989001      16.50160960      -0.50163302      -1.08809367       0.57567968      -0.16413062       0.32910137       0.06564188
H        9.71360157      17.82311226      17.75181591      -0.38518648      -0.37316404       1.76350125       0.27093454      -0.17923428       0.19397652
Pb       0.06206924      13.46177381      19.77320005      -0.10584247       0.74613763      -0.11087617      -0.78144326      -1.55912536      -1.48443081
Pb       6.77351621      13.90365709      20.00092444       0.14883109      -0.39710198      -0.02328129      -2.55948826       1.77064711       0.07626495
Pb      -0.17651736      13.59253647      13.06439281       0.18115844       0.37189305       0.04307355      -0.26912841       1.55847117       2.56740764
Pb       6.99263038      13.61300669      13.71551512      -0.06153984      -0.03132006      -0.32448205       1.36758480      -0.21299431      -1.62425982
I        3.05139955      13.42623649      19.82172508       0.25271491       0.12605697      -0.01963122       3.30556990       2.04766952      -2.41780813
I        9.91923174      13.34891880      19.41554798      -0.04465257       0.11495342       0.06744111      -1.96935164       0.18066895      -1.48268940
I        6.29859058       9.83836042      19.97630488      -0.10336442       0.18103519       0.14614793       1.71581197      -0.51159151       1.82787007
I        7.34260046      16.75156639      19.64193756       0.01551505       0.24013367       0.05616365       1.15727137      -2.23941927      -0.23031111
I       10.22422158      14.26912744      13.34836003      -0.34003889       0.09331647       0.11662183       2.86658300      -0.12815965      -0.82736915
I        3.45518300      13.70599960      27.23847581      -0.08233381      -0.00802594      -0.01978715       0.92012263      -2.37314874       1.99177136
I        6.52671399      17.21631864      26.78439912      -0.09243982      -0.05808942       0.15551244      -2.31294094       1.73478896      -0.04426921
I        6.85543258      10.63015654      13.49108972       0.03025892       0.04276182      -0.00255601      -0.17847802      -0.96271661      -0.29755070
I       13.27977992      13.23253261      23.59608416       0.07825916       0.03952245      -0.14312294      -1.90113708       2.71559994       3.01442271
I        0.19759073      13.56973866      16.35222605      -0.05935363       0.02385795       0.11881842       3.76182210      -4.61741207      -0.18212604
I        6.57327982      13.50064698      16.70977168      -0.00909029      -0.02222819      -0.06756502       0.21305217      -0.11002812       0.33039350
I        7.13817371      13.82205776      23.10440260      -0.29121320       0.36290961       0.00862397      -0.87865271       3.94403130      -1.58808275
N       16.54193730      16.62312252       2.79900441       2.87157140      -2.47667913       1.44238990      -0.38915063      -0.78223563      -0.36701061
C       17.95354443      17.11349939       2.98042671       1.33037558      -0.11632073       0.45804957      -0.25512422      -0.83858948       0.49033994
H       18.28302152      17.66371450       2.05448506      -0.38318013      -0.11269982       0.88536531      -0.02115127      -0.04522630       0.15636870
H       18.68777815      16.26753472       3.12729705      -0.81001138       0.54504291      -0.16761321      -0.00053807       0.11429573      -0.17380118
H       17.96900992      17.72536270       3.94216923       0.12797704      -0.44255043      -1.26720759      -0.06804545       0.00415058       0.14548143
C       15.74697507      17.78695481       2.84808568      -2.07651508       0.86991419      -1.88014055       0.89359425       0.83889673       0.75010723
H       16.06528387      18.46111744       2.03055041      -0.54097025      -0.15000042       0.04239332      -0.13043064      -0.00002722      -0.02969735
H       15.93123504      18.28125414       3.74095577       0.58858943       1.14843142       1.95351496       0.29447360      -0.03785774      -0.00968334
H       14.67634123      17.56754180       2.90114896      -0.09589312      -0.07664323      -0.60434149       0.16568078       0.14307411      -0.06849151
H       16.43108117      16.02559101       3.66381781      -0.54623850       0.20615311      -0.51858033      -0.10503271      -0.13773250      -0.12950793
H       16.52445091      15.93217386       2.01107909      -0.48806966       0.53326802      -0.22360887       0.04105956       0.11535673      -0.03917618
N        9.39230841      24.87377553       9.13703009       0.99114983       0.60058376       0.43092457       0.18476238       1.24744651      -0.04012888
C       10.59339673      25.52219025       9.86069355      -0.90599626      -0.83904463       1.29658383       0.94718538      -0.30162664      -0.72650093
H       11.55525810      25.11664699       9.44294811      -0.79924526       0.74942100      -0.01029275      -0.09953729      -0.31106750      -0.12340712
H       10.52944501      25.15448768      10.94508115       0.08855337       0.36174340      -1.20580083       0.07598511      -0.27735978       0.38080382
H       10.39025486      26.62639322       9.91688743       0.66068263      -0.85153065      -0.45957632      -0.00844675       0.11979032       0.13329337
C        9.33264959      23.36677170       9.27666196      -1.28028669       1.33925995       0.31078350      -0.02052413      -0.51638629       0.51609060
H       10.25365061      23.05747842       8.89982333       1.73804054      -0.97596499      -0.60337937       0.02389598       0.04258318      -0.11743668
H        8.52758931      23.07496387       8.61453868      -0.29686646      -0.50444266      -0.09589253      -0.13886074       0.19846761      -0.06278090
H        9.17364818      22.99894359      10.31749139       0.04624787       0.66656699      -0.48561967      -0.18434903      -0.04154270       0.26357184
H        9.31851724      25.25984355       8.16198759       0.66371444      -0.66508923      -0.16404002       0.05670789      -0.11574722      -0.20927714
H        8.54785397      25.31247448       9.49160258      -0.83033784       0.16220292       1.03983850      -0.19102319       0.03717606       0.07948915
N       10.58471969      17.03617375       9.84523368      -0.39759509      -0.14413931      -0.22173827       0.41596602       0.16784709       0.15190532
C        9.33240148      16.24388878      10.11327759      -0.21623782       0.05378163       1.38226085      -0.15094175      -0.48800074      -0.51073695
H        8.78824847      16.13524186       9.18997721      -0.24679821       0.06179541      -0.63810781      -0.13219352       0.45066947      -0.11292231
H        8.64917986      16.74057442      10.87426687       0.91328376      -0.04753882      -0.78013004      -0.05144685       0.04278531       0.09001430
H        9.50930225      15.24108957      10.53087612       0.43643064       0.17807693      -0.14123460      -0.32584305      -0.17773444      -0.09974202
C       10.16916272      18.41555466       9.32238099       0.82673696      -0.63283774       0.33884572       1.10879251      -0.05638819      -0.73571534
H       11.09799698      18.80118772       8.94634128       0.50623688       0.84264906      -0.23627046      -0.18329461       0.17628222      -0.16915244
H        9.76317372      19.04124299      10.12629222      -0.01484072      -0.22699270       0.01333222      -0.35168158       0.18693277       0.15901957
H        9.48702409      18.33626945       8.47214009      -0.21606470      -0.36982445       0.10679838       0.04847475       0.09824748      -0.18601699
H       11.20923578      16.56926068       9.12167493      -0.70993138       0.10561215       0.37543181      -0.37845548       0.11169341      -0.20774321
H       11.26919755      17.06099047      10.66775105      -0.82879079       0.33125356      -0.23858359      -0.17643419       0.10500840      -0.03307762
N       17.12659313      25.39729487       2.16025912       1.19575263       1.50332475       0.01277447      -0.18887730      -1.15274517       0.19648862
C       17.00903695      24.00494472       1.87392592       0.03061484      -1.69597848      -0.32200769       0.41382008       0.51982486       0.10408813
H       17.08728577      23.45196362       2.85123240       0.29060418       0.27780627      -0.90713193       0.02809271       0.03664134       0.08551589
H       17.72396659      23.65322582       1.08278742      -0.37721716       0.32247549       0.75051827      -0.15805862       0.06782442      -0.25301268
H       15.98601897      23.87378182       1.53278295      -0.34552946      -0.39117651      -0.24508159      -0.07040277       0.23999587      -0.13088952
C       16.45366629      25.68741598       3.44174022      -1.44718556       0.69825352       0.11133564      -1.00234730      -0.06519139       0.72932583
H       15.35324379      25.32462411       3.37215660       1.61373550       0.63012599       0.11437679      -0.17862063       0.14745079      -0.10795388
H       16.52152844      26.78430656       3.54669584      -0.39699923      -0.25224324       0.28145524       0.05236162      -0.42388005      -0.02912350
H       16.95208929      25.21774606       4.31109004      -0.01183321      -0.10739446      -0.42798122       0.14693516       0.07494032       0.04996117
H       16.85671141      26.11290481       1.39913442      -0.64598728      -0.69217372       0.26526178      -0.09765235       0.06898300      -0.02231498
H       18.13010722      25.72015679       2.17803493       0.01484060      -0.30490733       0.55196577      -0.41998482       0.00995037       0.49859046
Pb       6.36736335      20.98196192       6.02586679       0.17757937       0.12200608       0.32175620       0.39521260       0.79086203      -1.66618517
Pb      13.79857569      21.19084407       6.08614359       0.13535187       0.65388888      -0.06824374      -2.57029194      -1.13309572       2.52233034
Pb       6.49448987      20.68811712      -0.08115318       0.15770554       0.02079276       0.28970802      -4.92366725       2.92455689      -1.01910505
Pb      13.22860534      20.67772634      -0.44521366      -0.07955898       0.17877550       0.04763819      -3.09338413      -3.25936866       2.07013357
I        9.59549695      21.47263848       6.02244887      -0.14550415      -0.24305322       0.12290108      -0.48132831       2.13847303      -4.57461681
I       17.10694471      21.83349791       6.00944622      -0.36983728      -0.13095528       0.09310730       1.10102065       1.82335843      -1.21853996
I       13.61320603      18.25550167       6.29040113      -0.09252475      -0.55287555      -0.02699215       1.53623351      -0.31956719       1.54502208
I       13.80452140      24.55686005       6.88119903      -0.02634042       0.03561556      -0.04912116       1.79560440       2.86286779      -0.90654081
I       16.58512218      20.86387976      -0.15571611      -0.07597850      -0.11911211      -0.11019700      -0.96981454      -1.39628791       5.13632824
I       10.11672255      20.71984073      12.73773882      -0.41004119       0.09731176      -0.00427220      -1.75110519       0.79761889      -2.25576137
I       13.87350807      24.00258379      13.28723277      -0.35970116      -0.15105085      -0.07042876       0.51945547       1.28570349       0.26318504
I       13.05532715      17.69212160      -0.17298826       0.01242361      -0.17006047       0.03040685       0.56055598       0.35706568       0.52261142
I       20.34540431      20.93543712       9.98856345      -0.17256458      -0.06959095      -0.15644097       2.80966492      -0.73559004      -0.09140623
I        6.00934634      20.12923828       3.16706950       0.26592125       0.26763954      -0.15491684       1.02501474      -0.29558004      -2.17984930
I       13.77136060      21.65519203       2.83139290      -0.14535388      -0.16275295      -0.03528420      -3.45907885      -0.59942672       1.06206177
I       13.42496310      21.51363738       9.08267092      -0.21090486      -0.19957641       0.17420126      -2.31281085      -2.02628634       1.93908010
N       16.58205600      17.30013561      16.12485272      -0.67280670      -0.38380297      -0.62278873       1.39138405      -0.90697944      -0.11477032
C       17.27598023      17.33712912      17.43227642       0.11784040      -0.27046750      -0.07789600       0.23262554       0.69189314       0.01667681
H       17.83728361      16.39784809      17.53430485      -0.12071489       0.16636900       0.19535936       0.27817400      -0.02974733       0.07336065
H       16.48225168      17.45697071      18.16918075       0.14537186      -0.07377111       0.38693861       0.04890554      -0.00344545       0.02785624
H       17.98088529      18.18310404      17.43523990      -0.21869403      -0.07613661       0.12214255       0.20776427      -0.10451110      -0.33090136
C       15.43009022      18.30582055      15.98887519       0.81341228      -0.02237505      -0.45074263      -0.30856490      -1.00069055      -0.80073979
H       14.68568006      18.06468261      16.73208255      -0.27160694      -0.08542718       0.48050415      -0.11952032      -0.14359904      -0.10108242
H       15.02223549      18.19897876      14.98244875      -0.12537198      -0.17554833      -0.11757906      -0.16985979       0.24570975      -0.05361779
H       15.76816856      19.37606813      16.06398486       0.14052611      -0.94331256       0.30258768       0.36162860       0.12670122       0.05501805