600
Lattice="26.211608760286648 -0.022584277714695 0.17408951492041036 0.03433130774848684 26.184236071143175 -0.022050063101936492 0.2389294676352025 -0.03876755180034526 26.11568655393815" Properties=species:S:1:pos:R:3:forces:R:3:momenta:R:3 energy=-2373.419921875 stress="0.0018236298346892 0.000354916526703164 -0.0004043722001370042 0.000354916526703164 0.0012437468394637108 -0.00034980388591066003 -0.0004043722001370042 -0.00034980388591066003 0.0016397979343309999" pbc="T T T"
N       10.30375830       9.49595855       2.23158779       1.04279689      -2.61094655       0.17180114       0.51395925      -0.52939309      -1.00598048
C        9.19913442       9.38490863       3.26696586       0.69307722       0.47426454      -1.48565104      -0.29826232       0.14227416      -0.32406414
H        9.47942561       8.59016047       3.91512309       0.27084806      -0.84106666       0.75199450      -0.00901220      -0.06713026      -0.00025093
H        8.22624089       9.15324380       2.80113574       0.25747509       0.38954067       0.04072332      -0.33272365      -0.08667541      -0.40795359
H        9.31568082      10.33632535       3.76118549      -0.71792340       0.37842666       0.60672888      -0.09027503       0.13116677       0.03711686
C       11.69462246       9.62290901       2.83739506      -1.53475100       0.71260176       2.37125120       0.14516722      -0.19963985       0.32354680
H       11.97083015       8.72802593       3.45045757      -0.25985024       0.18008052      -0.77133935       0.05121410      -0.10189421       0.19894763
H       11.65664776      10.45269567       3.62176448      -0.04314779      -0.52814660      -1.11396126       0.02574218      -0.22282425       0.16079694
H       12.36173519       9.86161987       2.04832911       0.89601070       0.09931207      -0.69963013       0.20789270       0.05079408      -0.21899914
H       10.18203201      10.25400424       1.57421602      -0.45009893       1.27769849      -0.57591410       0.13420789       0.17422097       0.20142409
H       10.33609890       8.64796576       1.56059274      -0.30288551       0.59534137       0.79611269       0.21659866      -0.16547473       0.09903445
N        2.65159269      15.75703209       9.59567211      -0.47755041       0.36898773      -0.08177133      -0.03693929       1.09149834      -1.28478782
C        4.04221394      16.20571482       9.27822661       0.44091075      -0.94948296       1.24277854       0.60004051      -0.37248161       0.08514448
H        4.52241001      15.34350574       8.83045603       0.46964181      -0.34156482      -0.00026481      -0.44362091      -0.04420300       0.00576652
H        4.57780457      16.51887088      10.19721684      -0.30996189      -0.16227187      -0.23328616      -0.34065855       0.05426551      -0.26037737
H        4.08999152      16.96698100       8.53967358      -0.44268806       1.08534887      -0.68901232      -0.31406885      -0.03594952      -0.16460251
C        1.80607193      16.73181502      10.34592440       0.13484180      -0.15096581      -0.86539381       0.60256656       0.32131785      -0.28865889
H        2.38136641      17.10459690      11.17299101       0.01958689      -0.05262225       0.87709825      -0.09818935       0.00860222       0.05127762
H        0.79857238      16.31750838      10.52108644       0.50972590      -0.04099427       0.32509833      -0.04516624      -0.10460485      -0.01803051
H        1.71822612      17.52441502       9.63871048      -0.39066188       1.09831638      -0.44747946       0.06610874       0.32482171       0.21834463
H        2.62886317      14.88208338      10.12831770       0.25172554      -0.51422928       0.12963811       0.11287360      -0.01525904       0.14193081
H        2.16781674      15.63317252       8.69426360      -0.11564717      -0.44137625      -0.25251947       0.09015602      -0.23504171       0.11214223
N        4.47164456      10.10291808       9.32756912      -0.40156037      -0.22922885      -1.76726698       0.02906544      -0.47432265      -0.72847361
C        4.20522726       9.06211187      10.32297287      -0.79550462      -0.97525161      -0.47372041       0.18900930      -0.38098411       0.39113229
H        5.02980505       8.35427999      10.26165303       0.05591022      -0.37082682       0.06809524       0.11286209      -0.01159121      -0.22439484
H        3.24621869       8.57538541       9.98491008       0.68732921       0.21269428       0.64123228       0.41400528      -0.01458068      -0.22256270
H        4.15331969       9.44086489      11.33957057      -0.20064551       0.41598742       0.17187297       0.25218473      -0.20840726       0.19462648
C        3.41904219      11.16406404       9.26107661       1.06693056       0.64961207       0.62746074      -0.26547117       0.70258065      -0.38789503
H        3.75809185      11.98057095       8.60380621      -0.16458518      -0.30239308      -0.00226426      -0.08529759       0.11614920       0.17290210
H        3.39820141      11.51871193      10.27939261      -0.12141673       0.52727720       0.55533717      -0.17809441      -0.08398907       0.00623998
H        2.41760306      10.83768506       9.04353254      -0.31636825      -0.73054146      -0.57662341       0.05110537       0.23271487       0.10082571
H        4.57995795       9.62546385       8.38194055      -0.08255784       0.44538995       0.45767258      -0.06695971       0.04514020      -0.31327106
H        5.39156283      10.55365871       9.45657569       0.29306668       0.37009194       0.33141588       0.03618909       0.11882993      -0.00687652
N        9.92684000      16.28995024       2.20268963      -0.01352513      -2.61582774      -1.97135802      -0.04540608      -1.03159526       0.01183569
C       10.01831354      16.83295655       3.48397885      -0.90549724       0.88704703       1.42847052      -1.10465969       0.18616017      -0.79274688
H       10.91454031      16.41136923       3.87606806       0.89327404      -0.12330045       0.98777757      -0.13000155       0.26736205      -0.08874692
H        9.13939655      16.54605242       4.09549863       0.26210874       0.10870779      -0.19936362       0.01245464       0.02626514      -0.06360389
H       10.07301816      17.90045432       3.38005808       0.11379204       0.79695714       0.29559020       0.09146069      -0.22804414      -0.15268606
C        9.76368074      14.81965782       2.28678974      -1.62558860       0.23838806       2.15393874       1.08445932      -0.33859254      -0.47359879
H       10.61802081      14.34854887       2.74469781       0.53068159       0.03654070       0.62187507      -0.03881773       0.08924411       0.26908125
H        9.73621772      14.43294910       1.31890553      -0.48446465      -0.74980485      -1.79387112       0.10194782      -0.04576635      -0.17332435
H        8.80329109      14.59233253       2.89390644       1.33574861       0.24278117      -0.98346398       0.02530029      -0.11531196       0.07517095
H       10.79868700      16.41125709       1.65187456       0.28868491       0.51592202      -0.14990744       0.04467809      -0.14308869      -0.10598099
H        9.13452850      16.59366185       1.57479743      -0.31174068       0.63295526       0.17813017       0.03160223      -0.18804059      -0.24559471
Pb       0.05959657      13.07311387       6.38253983       0.10339179      -0.14450848       0.11281281       3.15464176      -0.49431116      -0.49983521
Pb       6.68269487      12.76389721       6.16210053      -0.13763264       0.19472959       0.04667140      -1.09997312      -1.57293073       1.89095004
Pb       0.19228983      13.17552655       0.03562600      -0.16903717       0.21320717       0.07869164      -1.92779592       0.69190715       1.62403562
Pb       6.39515283      13.27062420      -0.20529216       0.29671103      -0.18982456       0.10960854       0.30440941       0.33011916      -1.91314950
I        3.45344504      13.25283715       5.91257962      -0.09302284       0.03698756       0.06715234       0.73289854       3.65357573      -1.51573665
I        9.83346705      12.24767942       5.90254011       0.17371517       0.04862752       0.03541964       3.61026135       1.22155428      -2.77940313
I        6.13105638       9.50469767       6.14619249       0.11231994       0.01975378       0.20969152       3.56551973       3.56349172       2.84016612
I        6.88291608      16.02051180       6.19756799       0.06511844       0.13134703       0.06324015      -0.42575452       1.97587753      -1.16538591
I       10.18143737      12.01656227      -0.30636438      -0.05756567       0.18737429      -0.15987266       0.59869898       3.37829803       0.23169101
I        2.77322344      13.26081400      12.49853654       0.29674477       0.02085732       0.23422479      -1.51166277       0.94558491       0.14592620
I        6.23531659      16.27300947      13.31626000       0.04991388       0.07065360      -0.08619804      -2.12690479       0.69286879       1.39985729
I        6.22058361       9.96209558       0.62101036      -0.07531921      -0.06667016      -0.08850042       0.40324639      -1.37601931       0.68515215
I       13.52585620      13.18030511       9.63334666       0.14410039       0.15857039       0.10159079      -2.83043977      -1.70901540      -0.12379729
I        0.27466934      12.50581331       3.39858707       0.04450856       0.00620779      -0.28535118      -1.84981572       2.93310992       1.06445318
I        5.84995612      13.49688969       2.88562895       0.09962456      -0.05432766       0.03349580       1.65228324       1.72920387       1.03071128
I        7.05702466      12.69439013       9.62028884      -0.13799111       0.01677574      -0.00691716       2.05846752      -1.73592525      -1.59549071
Cs       9.90465419       9.74593616      15.89137791      -0.01468652      -0.06270021      -0.03563999       0.82852579       2.05719782      -1.63578851
N        3.10271899      17.06123154      21.98610260      -1.51359746      -1.26619442       0.06373484      -0.48498539      -0.30904695      -1.46775115
C        3.41216504      17.17889551      23.46798782       0.33416109       1.41373815      -0.12021029      -0.03612316      -0.99621869       0.75515251
H        3.44367270      16.19498098      23.89633702       0.25204514      -0.90839950       0.01782209       0.02983509      -0.08253560       0.02206871
H        2.62625597      17.70065864      24.09442976       0.65972032       0.01839216      -1.01774871       0.15338189       0.02747048      -0.09973771
H        4.44075438      17.66301737      23.53711094      -1.13899325      -0.42582298       0.15523571      -0.00587918      -0.09685530      -0.33752900
C        3.97432141      16.02169742      21.33895142      -1.18936585      -1.87941740       1.24778904      -0.26841122       0.31944387      -0.11387214
H        4.09307827      16.24258251      20.28954240      -0.42046016      -0.19934115      -0.72058746       0.35335270      -0.07338486       0.11264141
H        3.50283314      14.99208906      21.63909048       0.66178618       1.53691996      -1.00582818      -0.04388627      -0.26194528       0.13035121
H        4.97320563      15.96306071      21.73991057       0.58647363       0.57692315       0.65490593      -0.08697403       0.11025355       0.12938717
H        3.21651550      17.95479783      21.41310649      -0.21273159       0.00518295       0.51848220      -0.04144143      -0.01407995      -0.10283227
H        2.05265441      16.69738740      21.85282337       1.97703170       1.00528070       0.41924244      -0.35133519       0.02847674      -0.06056602
N        2.17690906      10.93951541      23.68605123       0.34417962       0.76887356       1.05131029       0.14651422       0.87130032      -0.54625283
C        3.17662454       9.85974498      23.78978206       0.11841971      -1.07960795      -0.51269865       1.07749508      -0.23803586       0.69989394
H        3.93565873       9.97003743      23.00783401       0.24908919       0.27889082       0.25440698       0.17018441       0.00805015      -0.38346671
H        2.69335081       8.88577458      23.57157642      -0.11884088       0.27699019       0.09052050      -0.14593118       0.11483838      -0.15119250
H        3.56328520       9.79733185      24.81337373       0.24397801       0.16438158      -0.14325102      -0.17571407       0.08456517      -0.19168049
C        1.72520610      11.16182594      22.27417730      -0.21137169      -0.39292322       0.69952362      -0.05033213      -0.32617369       0.23925248
H        1.08529474      10.34125141      22.06357558      -1.04153545      -0.81676222      -0.37194003      -0.22668847       0.06647667       0.03421036
H        2.57839911      11.00677006      21.63797509       0.76899448       0.17814334      -0.31754470      -0.05870053       0.18962052       0.02148182
H        1.24524290      12.11800455      22.03292725       0.03683862       0.06965404       0.55980540       0.04805444      -0.21591199       0.10454692
H        2.61412589      11.83759390      24.00843730       0.20241159      -0.06087882       0.02408359       0.06516848      -0.10515248       0.06660812
H        1.54203010      10.69125324      24.52847865      -0.54946502       0.42142434      -1.39431183       0.01911093       0.07538040       0.25118435
Cs      10.60659508      16.41588429      16.01982828      -0.33073311       0.02980258      -0.03116513      -0.38634600      -2.44938234      -2.45949994
Pb      -0.05255677      13.79996702      19.52520212      -0.00972750      -0.12944950       0.24203770       2.71916324      -0.18322620       0.92461867
Pb       6.20275504      13.35239834      19.31517106       0.35659474      -0.15792119       0.16732686       3.35379456       0.07489447      -3.92094716
Pb      -0.04782869      12.83190503      13.49778786      -0.12938773       0.06102577      -0.29387120      -2.14004522       2.42836563      -3.91430606
Pb       6.66300749      12.87857283      13.26976622       0.09920437       0.39155056      -0.16882093       2.02792498       0.30591224      -2.65072237
I        3.20505681      13.04077164      18.95701225      -0.09704284       0.06243386       0.21992389      -0.08544773      -2.40603710       0.04281937
I       10.23639261      12.23245807      18.85757728       0.01168115       0.08059934       0.01655687      -0.26949999       1.95343659      -2.36179027
I        6.01478663       9.94031201      19.75856928       0.15214194      -0.00414508       0.02119192       1.47884955       1.13696322       0.94877528
I        7.71064423      16.35861022      19.14218105      -0.08478128      -0.34700607       0.01665339      -0.84847541       2.29178707       0.88299022
I        9.79913097      13.13466206      13.72701756      -0.10825394      -0.02352135       0.04941692       0.29455241       0.20958961       1.22046665
I        3.65033284      13.32006630      25.75607990      -0.05425867       0.06962961      -0.01519180      -1.21319500       0.44116903      -2.47575081
I        7.83593672      16.48839640      26.11629248      -0.44442927      -0.05145453      -0.46565603      -0.32146691       1.27077965      -1.86344786
I        6.68918078       9.92096175      13.55573562      -0.06133597      -0.29351841       0.11530497      -3.76633530       0.05023045      -0.98502132
I       13.13283218      13.36754156      22.55136830      -0.00540734       0.10449451       0.12697146       0.53614385       3.18055766       2.71806148
I        0.31879742      13.22484388      16.51637600      -0.03876076       0.02612607       0.10462185       1.31786120       1.33617638      -0.50355413
I        5.72154151      13.53473369      16.26661649       0.18925196      -0.17662428      -0.17869633      -1.66392679      -2.58876558      -0.97326701
I        7.49397240      13.01695375      22.55247432      -0.13339642       0.19668888       0.06139171       1.23526048      -2.65938801       0.96497960
Cs      16.28695208      16.27764093       3.56537163       0.03540863      -0.09583922      -0.00882986       0.04004560      -1.83968006      -0.19903245
N       10.03493308      21.72562794       9.41102148       2.09701472      -0.39100506      -0.14562920      -1.06593335      -0.16125551      -0.79588492
C       10.90711113      21.99441683      10.61493107       1.23083914      -0.11752376      -0.12607955      -0.05370208      -0.13079633       0.24473768
H       11.27456853      21.05431616      11.12398956      -1.06214007       0.65195401      -0.21536624       0.05260640      -0.00834640       0.20066718
H       10.32546954      22.73532984      11.19745837       0.50483833      -0.55358979       0.31540433       0.00225691       0.40907111      -0.28315501
H       11.90345921      22.44447946      10.31734584      -1.15389085       0.08912078      -0.21250888       0.19538894      -0.03709009       0.32758956
C        9.62209597      23.03747972       8.84307003       0.55510854      -0.38648784      -0.70360179      -0.42672313      -0.34020654      -0.22210620
H        9.06654806      23.65872890       9.55713942       0.36498789      -0.09766856       0.12522515       0.06921728      -0.07697735      -0.18690329
H        8.98613120      22.79429981       8.01758005      -0.73834847       0.05389620      -0.73431466       0.08634414      -0.08744070       0.03808929
H       10.52653836      23.49597902       8.39906614      -0.30952357       0.26716437       0.50424909       0.01035340       0.18738446      -0.01263810
H        9.20710390      21.18487926       9.69120778      -0.35702872      -0.30876704       0.06195741       0.08638540      -0.20334257       0.14762593
H       10.60127962      21.14236070       8.66970391      -1.13096805       0.88625013       1.00283905       0.23823352      -0.20834971       0.02288089
N        9.86020237      16.71160828       8.74283708      -4.02668882      -1.75579528      -1.15935449       0.41327116       0.86450964      -0.08870694
C       10.31611146      15.39800751       8.30549748      -0.62195136      -1.01127899      -0.58071968       0.31482291       1.06666410      -0.00408674
H       10.63642610      15.44673769       7.23746721      -0.07314584      -0.05478020       0.66286606      -0.18693365      -0.11725559      -0.17503016
H        9.49277233      14.65220005       8.44221347       0.45671400       0.47736129      -0.12086718       0.22521344      -0.32229694      -0.20957115
H       11.10550148      15.19205061       8.97865770       1.24430060      -0.85715635       0.47644064       0.16301788       0.03333671      -0.04095414
C        9.09351302      16.68748306      10.05320781       0.84705241       1.03217544      -0.80704849      -0.32396041      -0.10496506      -0.45077483
H        8.29418638      15.94307902      10.05098826      -0.03658520       0.01959670      -0.22031343       0.01611316      -0.01019162       0.08258389
H        8.76831212      17.73010239      10.14950649      -0.43094856      -0.24857631       0.44320720      -0.05379152       0.13394004       0.03597546
H        9.85298438      16.46288032      10.77138464       0.35273524      -0.25314641       1.00409359      -0.13737835      -0.00988247      -0.25626730
H        9.15087950      16.92940582       8.00923712       0.26839329       0.62512214       0.20802965      -0.35271357       0.05703623      -0.25579443
H       10.60382411      17.33803963       8.70807311       1.85908691       1.93632935       0.18998124       0.19883103      -0.01634685       0.18662927
Cs      16.73502869      22.99971305       2.98147357       0.13528948      -0.05996408       0.06676008      -0.17495936       0.39284111      -3.05021122
Pb       6.76211925      19.84401774       6.75133164       0.04219650       0.11091097      -0.28332256      -0.92916214       3.56030776       7.30099414
Pb      13.46427776      19.57373931       6.24733771       0.24059124      -0.16225043       0.27478229      -4.17366639      -0.68531722      -0.81104907
Pb       6.64014309      19.63248554      -0.04743950       0.40421650      -0.01248138       0.17964258      -2.15700479      -2.96896791      -4.43074874
Pb      13.34345507      19.47577958       0.00707770      -0.06458290       0.22457195       0.35000086      -3.23654567       0.38729792       4.37440408
I       10.54493114      20.09419057       5.97363088      -0.52441550       0.13203725       0.17671228      -1.13343251       0.97339826       1.11087685
I       16.62141451      18.80960472       6.92868514       0.19216820       0.04986339      -0.01715629      -2.97269725      -0.73227355       2.19358426
I       12.92136030      16.25389736       5.94406615       0.19843429      -0.13211401       0.10744625      -0.34381535       2.83006195       0.19817630
I       14.10118601      22.67211485       6.11008271      -0.12209179       0.31167397      -0.09649312       1.49828723      -1.51479226       0.34820548
I       16.59281753      18.79461511       0.14095162      -0.09345841      -0.08151510       0.06873333      -0.62798288       3.49209390      -1.48658906
I        9.85288848      19.42906730      13.03631810      -0.11061507      -0.00522533       0.32548376       1.09692773       0.31732917      -1.26992244
I       14.08391227      22.84424197      13.64439810      -0.12977674       0.01347792      -0.01098037      -0.15553548       1.74298439      -2.34024861
I       12.51495625      16.37636743      -0.05509006       0.13071001       0.01025130      -0.20058843      -1.98736368      -2.47674471       0.53528017
I       20.13937806      19.72164653       9.84709544      -0.29880253      -0.20313809      -0.07790343      -3.10177509       1.31474945       3.44598878
I        7.03458259      19.89242099       3.11973125      -0.00429706       0.00915676       0.15580482      -1.94107818       0.75467750      -0.22610208
I       14.02657499      19.26487361       3.31070273       0.02791551       0.12933637      -0.14013290       1.27387468       1.16433140       0.82900974
I       13.24241840      18.58663331       9.96784753      -0.03422697       0.07124323      -0.21719690       1.63325703       0.93491178       2.88537047
Cs      16.26604790      16.30839589      16.12498927      -0.11867604       0.22506357      -0.01306300      -1.02244920       2.57819008      -1.63124989
N        9.80997931      22.67030126      23.73323113      -2.48397420      -0.18267667      -0.38244185      -0.95548202       0.62495327       0.30316905
C        9.01864921      22.48619760      22.46172141      -2.11217513       0.15186815      -0.44698040       0.96220779      -0.01256703       0.58721036
H        8.17122077      21.78376898      22.68039639       0.72243565       0.21938945       0.03385258      -0.38169282       0.11089308      -0.00087512
H        9.55600644      22.04862733      21.58832023       0.32670166       0.34519964       0.79430022       0.02246651       0.14701581      -0.18284034
H        8.43554744      23.41740435      22.13402358       1.27504363      -0.59701299       0.57106935       0.03354796       0.32117677      -0.29025295
C       11.09441103      23.32881231      23.54514457       0.25996935       0.66060682       0.02009547       0.13041538       1.06028174      -0.22986292
H       11.83885068      22.64295671      23.04788306      -0.78680196       0.64078297       0.09816419      -0.04560860       0.22993035      -0.35990960
H       11.40112903      23.50744486      24.56494584       0.76621248       0.45109625       0.33184486       0.06004703       0.20138995       0.01632740
H       10.86460611      24.28325785      23.02535610       0.62742625      -0.48797215       0.01267855       0.03038953      -0.32892354      -0.20359441
H        9.98063384      21.76394402      24.14094213       0.27514202      -1.16733669       0.30608362      -0.27883609      -0.09145680      -0.33262621
H        9.14317332      23.06572430      24.50525404       1.08517876       0.03549129      -1.14367848      -0.03704856       0.33291528      -0.13900343
Cs      10.93125923      16.31326763      22.62924605      -0.26230315       0.08935784      -0.03672123      -0.29052083      -2.07785766       0.58912759
Cs      16.90532487      23.39284831      16.36237887      -0.03241536      -0.03700859       0.01689857      -0.15718197      -1.49110575       1.39224288
Pb       6.69651032      19.21175982      19.69204800       0.11265866       0.24455676      -0.11285189      -1.26435663      -4.72897694       0.36013362
Pb      13.22615813      19.67614658      19.38888766      -0.03652370      -0.08961696       0.32956846       3.12941869      -0.13713466       0.60450804
Pb       6.48909232      19.55232352      13.34341829       0.03359825      -0.22879125       0.03678676       1.57677950       3.24166026       3.65633544
Pb      13.36959840      19.58477447      12.93784690      -0.16188415       0.02351457       0.03168500      -0.02143790       0.28520531       0.16024258
I        9.81950263      19.71475967      19.54647516       0.36901014       0.03209456      -0.18587717      -0.30890430       0.92653523      -0.11452818
I       16.13605825      18.43643806      19.87134582       0.03009139       0.21308613      -0.09342693      -1.72413260      -2.13439662       0.73313775
I       12.39809070      16.36201844      19.13891659       0.17398647      -0.06390756       0.21725064      -1.86044641      -0.59083070      -1.16101580
I       13.97913651      22.88041773      19.24489121      -0.03003581      -0.11035114       0.05305424       3.21684273       2.16664866      -1.91002032
I       16.36957673      18.87548615      12.75610204       0.07703965      -0.01200790      -0.01406945       3.59196332      -0.55049639      -4.32171455
I       10.52328520      20.42739564      26.74810347       0.05607019      -0.23515070      -0.32194242       0.80696841       0.30547095      -1.50090924
I       14.31169739      22.68215543      26.36408654      -0.12712576       0.21444428       0.16905986      -2.53573848       1.43834002       1.38245258
I       12.95186879      16.41846802      13.24662051       0.14662399      -0.24925604      -0.02023931      -0.11843179       2.06166487      -0.32140204
I       19.33844715      20.06976748      22.89935547       0.03237604      -0.13772605      -0.16017390      -0.25066469       0.35752307      -1.84565959
I        6.18382602      19.10235121      16.41674252       0.08003992      -0.02929727      -0.00733111       0.44939146       0.09090607       0.21448732
I       13.18557062      19.84163714      16.47037997      -0.01562257      -0.05896287      -0.36846467       0.84307473       1.47787572      -1.49566402
I       13.82322592      19.67640838      23.16393912      -0.09021088      -0.06972571      -0.43088851       2.06190899      -2.38285191       3.22993638
Cs      10.58411510      22.79931457       3.23044298      -0.00443437       0.25231187       0.19111121       0.82323208      -0.56750514       1.02589570
Cs       4.17180724       2.60707868      10.45990960      -0.15244811       0.19539532      -0.15125492      -0.61161873      -2.98766832      -0.68911773
Cs       4.06655933      23.14754063      10.18321252      -0.17225540      -0.09572459      -0.06835574       0.02710887      -3.48682557      -2.21719619
Cs       9.49092599       2.63921360       3.37531169       0.05487710       0.11389161       0.18847437       0.54123076       0.89585271       0.26906722
Pb       0.14160665      -0.28338477       6.95689257       0.18213943       0.10615921       0.05929667       1.12521660       0.62261833      -0.76925138
Pb       6.41307195       0.06034539       6.65342928       0.40501321      -0.32478171      -0.08914818      -3.76808411       0.10752451      -0.49246679
Pb      -0.00348795      -0.43037321       0.45283704      -0.01966432      -0.02019142      -0.17897394       1.44648304      -1.19553013       1.59716215
Pb       6.81947455      -0.01021802       0.25443488      -0.02804858       0.03894039      -0.30211198      -1.34118376       0.93887416      -1.76278545
I        3.47036653      -0.08778239       7.18281722      -0.49579157       0.12578269      -0.03322814       0.49951916      -1.50770020      -1.30691273
I        9.76647746      25.93608662       6.14127386       0.23456402       0.00343768      -0.06986720       0.34286013      -0.14350590       3.67924467
I        5.90109649      23.00018868       6.62025710       0.19677762      -0.33693687      -0.03171540      -2.16853986       2.51560293      -1.22873650
I        6.96471355       3.05084264       7.26874810      -0.09471349      -0.09151354      -0.07029372       1.66086299      -2.17122496      -1.53206171
I       10.21975254      26.04945355       1.13889145       0.27234800      -0.08042632      -0.19368133       1.77159910       0.14753895      -1.30831989
I        3.55910781       0.32005606      13.33515808      -0.21569329      -0.13504887       0.03591160       2.94279745      -1.07835361      -1.31706959
I        7.28805163       3.06073003      12.82913151      -0.08122955       0.11232691       0.02747889      -0.29465950      -2.41019300      -0.73434125
I        6.74337827      22.94962494       0.45868777       0.04538964      -0.08161322      -0.29433197       2.35476739      -1.15005251      -1.18721276
I       13.20254063      -0.35813981       9.64469620      -0.11458640       0.11412071       0.04158197      -1.28606733       1.15748754      -1.75756976
I        0.35463250      25.16332651       3.59495708      -0.04940978      -0.01824093      -0.00659040      -1.97948450      -0.29000943       0.44099580
I        6.68125691      -0.32646258       3.19654223      -0.08049987       0.08768117       0.63897003       1.94302592       0.33153253       2.36275161