520
Lattice="25.714080753477646 0.1599736931305691 -0.2503023846935532 0.23272315786286574 25.746902984824096 0.027081867300034035 -0.2705545085927475 0.0012962503521254443 26.048928000430063" Properties=species:S:1:pos:R:3:forces:R:3:momenta:R:3 energy=-1953.635986328125 stress="-0.0002456815564073622 0.0004126770945731551 -0.0002363617822993547 0.0004126770945731551 0.0005553661030717194 -0.00019638281082734466 -0.0002363617822993547 -0.00019638281082734466 0.0010230317711830141" pbc="T T T"
Cs       9.29846890       9.35400830       3.04811655      -0.02268498      -0.00673602       0.13091332      -1.19738511      -1.13923957       3.21970202
Cs       3.12515702      16.46913589       9.70758287      -0.01677929      -0.07419186      -0.04529666       2.40290405       0.36420170       1.72893558
Cs       3.35323986      10.49261914      10.15589553       0.03933721      -0.15607831      -0.20757663       0.23594925       0.18041603       0.16154172
Cs       9.80643342      15.55193664       3.21831787       0.03199313       0.08021790      -0.12036137       1.52105949      -2.11804128      -1.50033939
Pb      -0.05617865      12.96253349       7.05656027       0.21761410      -0.13299869      -0.45267645      -2.57898701       1.10988717       2.36979597
Pb       6.86274177      13.18486593       6.19345344      -0.39065699      -0.16394988      -0.04629567       1.84520343      -0.97482382      -1.33883232
Pb       0.04138396      13.25635019       0.49503890      -0.11157606      -0.21403594      -0.09233497       0.68196369       5.15815815      -0.31307291
Pb       6.40906935      13.09491771      -0.27897248       0.15701306      -0.00866943       0.14811895      -0.86695349       0.68602331      -0.22465157
I        3.32764508      13.71569241       6.80558392      -0.09302699      -0.04472167       0.09854526      -0.49212388       0.10636783       3.12917627
I        9.79858813      12.53765230       6.41521836       0.14372783      -0.03229289      -0.17477124       0.41054416      -0.97984922      -1.13822525
I        5.74317217       9.88475561       6.60092445       0.18001517      -0.01831698       0.02024715      -3.94913357      -0.41911301       0.45945080
I        7.36470182      16.22402761       6.61229490       0.07500539       0.07162155       0.02479149      -0.83328020      -1.91876814      -1.87678000
I        9.85682406      13.09640207      -0.39595405       0.05529287      -0.07539511       0.09800248      -2.43580324       5.31385938       3.74754135
I        3.25283079      13.47126380      12.28708324      -0.17363132       0.09248046       0.00968208       1.72968041      -0.78399220      -2.32588751
I        6.48939706      16.19544540      11.68221728       0.09049471       0.12423894       0.10874528      -1.94160101       2.31375744      -2.85321969
I        6.71788857       9.88478265      -0.07552355       0.01175850      -0.10771123       0.01146411       0.84927695       1.23168965       0.14969167
I       12.24769557      13.38449349       9.75866743       0.13976175      -0.14512449      -0.01132061      -0.45538403      -0.78995082       0.60440130
I       -0.25129298      13.20716545       3.63178604       0.05342968      -0.13057873      -0.23943451       0.68391319      -0.25149483       2.10569378
I        7.30793593      12.50614903       3.12255789      -0.07658455       0.19632238      -0.18458366       0.75874125      -0.49208950       0.41926961
I        7.02943305      12.67564282       9.26084049      -0.13763581      -0.01555814       0.48959679      -1.66108271       1.86683243       1.58430529
Cs       9.33478188       9.59216066      16.28435006       0.06033936       0.02101248      -0.04742245      -2.85971086      -1.56405866       0.21232988
Cs       3.81436309      16.05855049      22.99425113      -0.28286375       0.23767477      -0.17175956       0.28618400       0.56131237      -2.00769561
N        3.37762861       9.99833079      22.49874304      -0.22889156      -0.19380631      -1.07480931       1.16603702      -0.52416906      -0.89896235
C        3.54985393      11.04722488      23.51671050       0.67359904       0.73780473      -0.37672858      -0.18033941      -0.27357780      -0.68796746
H        4.39795813      10.72752671      24.11822081       0.33812875       0.09062896       0.16917526       0.10633683      -0.14543554      -0.03711232
H        2.67675522      10.87551076      24.11353694      -0.72418619       0.86699029       0.78625619      -0.23447583       0.09817271      -0.05446737
H        3.78420395      12.09680573      23.09771091      -0.82370156      -1.40776610       0.40799612      -0.18754714       0.09564271       0.12650517
C        3.62831234       8.65007507      23.10382049      -1.59698684       0.00482225       0.96224445      -0.24348139       0.46036820       0.69425538
H        4.64482020       8.56144968      23.48763015       0.08865380       0.26963655       0.29706037       0.06593593      -0.17096541       0.16721403
H        3.49291274       7.87060691      22.38218185      -0.14621907      -0.46091060      -0.87592752      -0.01075582      -0.11755091      -0.14592172
H        2.80943751       8.48355177      23.88582872       1.21035320       0.22309388      -0.58165191      -0.05002488      -0.03190984      -0.23914204
H        4.06955278      10.14652935      21.71337055      -0.29120618      -0.12459902       0.03368073      -0.10744891       0.23661557      -0.19192229
H        2.38472355      10.04170288      22.11780058       1.18492927      -0.15014043       0.10406366       0.09178873       0.20685170      -0.26978838
Cs       9.45252836      15.97842458      15.89240567      -0.19676050       0.05110095       0.19358605      -2.23947707      -0.35366805       0.32711901
Pb       0.19197071      12.94694021      19.99312356      -0.18114623       0.25782977      -0.28630835      -4.90949833       2.13475202       0.84880606
Pb       6.32058669      13.02015449      19.32458407       0.32129882      -0.29644308       0.02079564      -0.02454926      -0.06262131       0.97170177
Pb      -0.07466749      13.15652277      13.11103842       0.08628365      -0.09034378       0.14144029      -2.60278161       4.49803513       2.73474105
Pb       6.28745253      13.07303391      12.34236331       0.19915512      -0.06103608       0.08097142      -1.54943607       0.37514798       1.37234060
I        3.33419798      13.31913761      19.13805295      -0.59356176      -0.01095783       0.11141533       3.81915676      -2.08057640      -0.56189445
I        9.51314883      12.40101280      19.38902612       0.25425230       0.00323104      -0.07710281       1.80286493      -2.75340372       0.04575577
I        5.79818848       9.67254838      19.95654559       0.01944382      -0.08205049      -0.10218775       2.78651170      -3.07295391       0.23069250
I        6.60514049      15.99986566      19.01166194       0.21786689       0.41577067       0.11678414       1.86115051      -1.37620953      -0.54755384
I        9.35202214      12.51985005      13.16294832      -0.29566956      -0.03770099       0.15733826       0.38883587       1.73554520      -1.79424234
I        2.87727212      14.00687642      26.05643749       0.06866184       0.02508473       0.16697006       1.61187601      -0.51141388       0.11139566
I        6.78523211      16.13775687      25.48440062       0.13402380       0.28167223       0.06599419       4.67969676       1.26053500       1.40123964
I        6.00959004       9.70764497      12.93541253      -0.00938527       0.20415873      -0.09913315      -0.81925653       0.26439935      -4.15761204
I       12.95313976      12.41045630      22.63978358      -0.02885986       0.03771292      -0.30265669      -1.35038218       0.17272333       1.72918649
I       -0.04339396      12.77838440      16.34604566       0.02013131       0.08446651       0.02092326       1.99602850       2.59874399      -1.57280312
I        6.22346916      13.47799357      16.18388802       0.38795934      -0.17930963      -0.37960290       0.13841994       1.87976989      -1.97760047
I        6.22103223      13.44703732      22.57179600       0.22354185      -0.20945150       0.03039126      -1.40397115       1.13510044      -2.11443991
Cs      16.40539021      16.24218746       2.90502853      -0.06493114       0.01551762      -0.01578912      -0.00626669      -3.48528753       2.30505755
Cs       9.18984767      22.79084909       9.48401119       0.01660094       0.01346812      -0.00633142       2.46379792       2.48422485       0.81086658
Cs       9.95256329      16.22812981       9.59548773      -0.25654635      -0.06222988       0.05629694       1.09114504       1.02263399       1.46564388
Cs      16.33007878      22.30804057       2.88674501       0.00561332       0.03191278      -0.02083472      -1.35391265       1.85410811       1.17055820
Pb       6.72044980      19.19687958       6.16350675      -0.13783020       0.05427388      -0.33901989      -2.31136897      -1.87541914       3.64526978
Pb      12.61693103      19.31156980       6.54006894       0.34527737      -0.08772581      -0.07487185      -4.88193519      -1.72223510       0.18684768
Pb       6.16559655      19.57808268      -0.28786880       0.23510130      -0.14670935       0.01556049      -2.70955648       0.24193131       1.28503836
Pb      13.09790485      19.49050305      -0.06174705      -0.01490396       0.12786061       0.13465212       2.99083295      -0.80359543       1.64168915
I        9.75645997      20.16856656       6.52379731      -0.48906549       0.12355107       0.16520234       1.04939229      -0.64568557      -1.42925114
I       15.63800441      18.57504058       6.21712214       0.47061432       0.08754591      -0.03021410      -0.92833330       0.93600189       0.73289963
I       12.03827490      16.18811323       6.32926068       0.05732215      -0.05877562      -0.14939085      -0.22665190       2.11241365       0.08445368
I       13.50941144      22.71716755       6.25533486       0.07685933      -0.36120439       0.19556415       0.03483571      -3.49850511      -0.69474556
I       16.41394052      19.43745373       0.00282697      -0.20676544      -0.24750301       0.05187446       0.48281836       3.36800505      -0.22527110
I        9.23086646      20.09342477      12.62985864      -0.20283719      -0.26334929      -0.18223290       0.90544017      -0.28713963      -0.84645880
I       11.93303045      22.50134623      12.93435499       0.12087870       0.02687819      -0.08172518      -0.44550217       0.70217642      -1.14062021
I       12.84299540      16.41063773       0.40120468       0.01285255      -0.05337295      -0.14208942      -1.55266745      -0.48737965       5.08638312
I       19.66472539      18.50088687       9.64816016      -0.32872300       0.32429787       0.31408354      -1.21495011      -3.04584229      -2.10781913
I        6.32585652      18.40597523       2.95369525       0.04126811       0.08712915       0.02203093      -3.33246689      -4.79369080      -2.24870327
I       12.51166266      19.30484212       3.18357373       0.09891119       0.01307098       0.12924599      -0.26775941      -2.59439315       0.59570693
I       12.86786528      18.30403220       9.80440156       0.11035206       0.23322364      -0.11666376      -0.93803507       0.27709246      -0.13560975
N       16.48440285      16.19452941      17.27682741       0.29380254      -1.15371969       1.24715229       0.22426965      -0.27715888       0.27920502
C       15.91776789      17.26193295      16.42631238       1.55030986       1.30619135      -1.57272464       0.22828051       0.26012437      -0.10448505
H       16.42008783      18.25408966      16.66609181      -0.56312968      -1.06429332      -0.11110382       0.10189707       0.09007555       0.09414477
H       14.85185495      17.37421526      16.50743056      -0.67040417      -0.22191944       0.42539594       0.19495662      -0.05760695      -0.16860976
H       16.16365019      17.03829117      15.33617394      -0.16573757       0.07196319       1.14895496      -0.25922568      -0.12772890      -0.22742079
C       16.12369905      14.78317240      16.80016656       0.67221755      -0.31395184      -0.15939898      -0.20018238      -0.38364491       0.72374860
H       16.40473893      13.97266101      17.54314611      -0.25903970       1.01919242      -0.43270715      -0.00900405       0.32441434       0.03930541
H       16.71844900      14.56296471      15.87851556      -0.51384544       0.40138423       0.40721062       0.25959902      -0.17414827       0.08885495
H       15.04292648      14.74409832      16.59018949       0.25227636       0.10036642       0.05259009       0.10983495       0.09073063       0.30034832
H       16.16903298      16.29809441      18.30026008       0.36806892      -0.06278724      -1.30093996       0.00748601      -0.04151297       0.05594307
H       17.55814687      16.26136503      17.30499222      -0.96865536       0.03497640       0.13588365       0.05305377      -0.14617095       0.06967899
Cs       9.56426213      22.37706736      22.52514317       0.02624411      -0.10422637      -0.07683695       2.09682539       1.57729115       1.20421203
N        9.74048621      16.82003286      23.25770873       0.16789581       0.93579652       0.49089563       1.44173286       0.66815065       0.10690465
C        8.97118758      17.81325223      22.37845304       0.04552531      -1.50216216      -0.14201209      -0.88252125      -0.68426987       0.27769754
H        8.29555563      18.29144717      23.07650909      -0.35004425       0.47110496      -0.17936769       0.06182463      -0.00074928       0.13437782
H        8.47190092      17.15661888      21.64051619      -0.36180867       0.24116377       0.42319662      -0.18715992       0.12489251      -0.07773686
H        9.55503936      18.48390122      21.72437137       0.52044849      -0.03837976       0.77692492      -0.00001218       0.32200785       0.07899264
C       10.47389168      15.78964272      22.45944284      -0.29202310      -1.00640967       1.33626765      -0.49633665      -0.29954751      -0.06741464
H        9.79293004      14.96775586      22.24318115      -0.47190881       0.12966145      -0.58251811       0.20669968      -0.09522734       0.02462953
H       11.09680463      15.32476213      23.22268972       0.80148304      -0.02779660      -0.27096233      -0.15193448       0.05569847       0.07130225
H       11.00935854      16.14141366      21.57343541      -0.13250151       0.37899321       0.22110046       0.15030486       0.16537047       0.16873160
H        9.03777096      16.36899452      23.98014100       0.88759643       0.50230761      -1.20835196       0.24451090       0.04223024       0.11203120
H       10.45940193      17.29872454      23.88928163      -0.93443116      -0.12014197      -0.71972773      -0.08684816      -0.12840094       0.19947104
N       15.03770683      22.95078814      16.91590013       0.90521478       0.65017200      -0.58382308      -0.07036693      -0.95374685      -0.47383153
C       14.98556407      22.18664111      15.64168856       0.17550029      -0.68009650      -0.68091782      -0.03641746      -0.42015652       0.94357817
H       15.59908957      21.25791251      15.79417079      -0.50065399       0.59968974      -0.11457854       0.02920404      -0.13775169      -0.27259149
H       15.51156921      22.79022580      14.84303753      -0.74916671      -0.45197480       0.66996693      -0.03320384       0.23808031       0.01125805
H       13.93365836      21.87944830      15.38958523       0.80898336       0.42913543       0.05858847      -0.20302408      -0.01935837       0.06152824
C       16.46593274      23.15298493      17.25487753       0.75708291       1.26839001       1.10905210       0.76062188       0.25062152      -0.10596359
H       16.86812301      22.18962987      17.61013791       0.16190691       0.19368536      -0.31659068      -0.03863617      -0.46052137       0.05469165
H       16.51826686      23.89596722      18.10748275       0.00431364      -0.68942873      -0.66116585       0.18204277      -0.23643140       0.06984800
H       17.03441614      23.60254535      16.40866266      -0.41080993      -0.51267624       0.25023275      -0.03427220      -0.00670669      -0.02803209
H       14.65119064      22.42731431      17.72115241      -0.80868309       0.05301286       0.01240835      -0.07894883      -0.04458979      -0.19236155
H       14.59736284      23.90039689      16.84160926      -0.25097069      -0.72575844       0.02613432       0.00956580       0.02130499      -0.53751846
Pb       6.35240232      19.42474796      19.31573984       0.21031331       0.04978991      -0.05204739      -2.10318282       2.48948722      -3.03583980
Pb      12.70489068      19.33778126      19.43583746      -0.03224894       0.13483323      -0.11310359      -1.22173852      -1.62739331       2.11316596
Pb       6.15700321      19.32288424      12.04840033       0.15735553       0.02713537       0.53071397      -0.91056950       4.75714943       1.03589170
Pb      12.57273864      19.36005123      12.95170162      -0.01335263      -0.17760527      -0.01684225       0.00012577      -2.66318541      -1.67899181
I        9.51649640      20.08427509      19.11856465       0.26728549      -0.05040732       0.05019178      -0.92038277      -0.95240166       1.99859125
I       16.16324895      19.69175172      19.49021475      -0.13601396      -0.20848576       0.03903338      -1.42055806      -0.14006355      -1.16793384
I       12.84239245      16.19553065      19.14926152      -0.04540768       0.10359087      -0.01393992       2.85718458       1.37914460      -0.15754390
I       13.02371946      22.61901475      19.77758058      -0.05388910       0.19560097       0.07961126      -3.26760278      -0.78900806      -2.47929426
I       15.64602861      19.18628210      12.71455170       0.27361470      -0.05061375       0.05926334       1.20919839      -0.91719261      -1.46964185
I        9.71314262      19.78123727      25.61617206      -0.16028472      -0.01742061      -0.09238572      -1.69225942       0.15256780       0.87224947
I       13.64597941      23.06236977      25.86813973       0.00478821       0.00069030       0.01570327      -0.00484407      -2.38705688      -1.53642746
I       11.98173564      16.19101633      13.38338629       0.00238624       0.00553802      -0.08348677       2.63502501      -0.31258283       1.82782165
I       19.22407995      18.64105667      22.45745330       0.05758948       0.15126406       0.20241705       1.06244488       2.00243124      -1.85645847
I        6.38094555      18.88565180      16.01336669       0.06485539       0.01498539       0.01471306       1.06048548       0.57584277       0.15928480
I       12.32242716      19.65609853      16.13463250      -0.10182082      -0.16838295       0.20778663       0.44573081       3.63207701      -0.77037223
I       12.89891537      20.06934254      22.87018440      -0.02690997      -0.20767866      -0.20806516      -2.47965083      -0.27258444      -2.25313502
N        9.62405629      22.18738709       2.01611181      -1.08830209      -0.03650442      -1.48096974      -0.35524906      -0.17614934      -0.31022571
C        8.65641886      21.64351505       3.02537532      -0.10499954       1.45209760       0.12291699      -0.02536275      -0.34405435       1.07679003
H        9.06045161      20.83707089       3.63164022       0.54656741      -0.28345843      -0.14653544       0.24727439       0.05990808       0.07182116
H        7.74759550      21.30731553       2.51366757      -0.00015641       0.16520759       0.04064180       0.20703605       0.19524610      -0.16817382
H        8.50537474      22.51309758       3.69124070      -0.48391424      -0.40831670      -0.03543387      -0.10557629       0.10392070       0.13724132
C       10.79677040      22.86139776       2.55993842      -1.24509232       2.56308188      -0.02299416       0.19950088      -0.32404691       0.20858390
H       11.39232444      23.20428108       1.69208522      -0.01646112       0.10914475       0.51972946      -0.01087423       0.13807466      -0.10223967
H       11.33405687      22.15882980       3.14268827       0.74016841      -0.56951856       0.97401201       0.07429460       0.03585033       0.14407555
H       10.32815439      23.74102809       3.13736814       1.32141115      -1.08661452      -0.46745695       0.09792583      -0.02097590      -0.01972900
H        9.14267645      22.87375403       1.30888060       0.64887987      -1.38599602       1.08033109      -0.14086625       0.04584868      -0.30102338
H       10.00278278      21.38752075       1.47330484      -0.31197058      -0.25399888      -0.58693084       0.13765492       0.16823731       0.10056501
N        2.89354192       3.88063194      10.64598783      -0.26821112       1.29025405      -2.49985068      -0.48484172       1.31027640      -1.54371469
C        3.45060725       5.24047720      10.30874630       1.32365942      -1.21866499       0.42735155      -0.69792491       0.27876127      -0.26928332
H        3.69874961       5.15182686       9.26290963       0.41180595       0.24705083      -0.46713086       0.18811606       0.03100975      -0.04055946
H        4.32636292       5.45852056      10.95035246      -0.18050724      -0.33149016      -0.25558516      -0.32676056       0.22866646      -0.15014875
H        2.77184155       6.03375837      10.43944790      -1.43984902       0.75704843       0.21730030      -0.25616647      -0.19079160       0.11104629
C        1.87046399       3.42966465       9.65154014      -0.18091119       0.09488514      -0.80383868       0.17668310      -0.56735582       0.21401068
H        1.17834482       4.27424495       9.48372999       0.11263046      -0.37234466      -0.00283456      -0.06705304      -0.11607528      -0.10905775
H        1.38634100       2.56963171      10.09545141      -0.44431323      -0.19390150       0.17989513      -0.02236577      -0.06709294      -0.06022306
H        2.32739127       3.04470458       8.67952567      -0.14795103       0.79137100       1.08607479      -0.30190688      -0.05104230      -0.01511370
H        2.50308198       3.88286233      11.55569619      -0.36383985      -0.20327151       1.73075083      -0.05248905      -0.01813282       0.05884740
H        3.62477970       3.21601879      10.50632588       1.14720839      -0.80492119       0.71293311       0.06505130      -0.06553255      -0.07744430
Cs       3.54841013      23.13457995       9.55367661      -0.06281299       0.03798605       0.09606297       1.00811925      -1.53884587       3.32056525
N        9.30142111       2.74494323       2.13939202      -1.65071369       1.24238105       1.29777506       1.04637688      -0.48419882       0.53860884
C        9.58581271       3.84909623       3.13825393      -0.16689535       0.08080465       0.79311723      -1.15404953       0.27057997      -0.03938430
H       10.59386509       3.75465904       3.56147739      -0.14575654      -0.57576799       0.07199874       0.15658231       0.13513251       0.11583411
H        8.80798118       3.90967591       3.93579800       0.41543634      -0.44888452      -0.42564363      -0.20609217      -0.05059467       0.10636242
H        9.61911215       4.83314773       2.67545323      -0.20953854       0.09444499      -0.63191546       0.01539275      -0.14246095       0.28801943
C        9.14890217       1.37685408       2.71051075       3.47157017      -0.06393242      -1.14684720       0.64639934       0.11666268      -0.45393572
H       10.22476886       1.06502840       2.85080808      -0.93163033      -0.05396530       0.41663466      -0.26256699       0.01615479       0.05458487
H        8.77117858       0.71307614       1.97465500      -0.57060501      -0.58606991      -1.09705849       0.00385820       0.01640493       0.17315938
H        8.58630332       1.25175852       3.58095806      -0.98857370       0.57735743       1.64141489       0.00997450       0.03891792      -0.03502952
H       10.07536691       2.81930374       1.47815491       0.53740269      -0.30847948      -0.76782136       0.03800708       0.13644749      -0.13299493
H        8.42137202       2.99806871       1.63891065       0.26380756      -0.01904668      -0.14722320      -0.06666013       0.02755323      -0.05547887
Pb      -0.08492580       0.47285474       6.70545490      -0.11934985      -0.28510749      -0.16566401       1.16309268      -1.58205147       0.25367415
Pb       6.27064066       0.18554732       6.21783883      -0.32170584       0.04024072      -0.01617962      -1.23392357       1.67430709      -0.10028974
Pb      -0.40065905       0.04736959       0.21268458       0.23949926      -0.16089860       0.00391904       3.61436646       0.88972389      -0.14967247
Pb       5.94577075      -0.20771914      -0.35929161       0.23862037       0.11872270       0.06029873       0.91073812       1.12311932      -3.99104452
I        2.86987211       0.77389871       7.13938082       0.21842623      -0.11551520      -0.22733167      -2.52362678       1.01317260      -1.59283318
I        9.47491859      25.42374299       6.47296437       0.21834113      -0.03343272       0.01299631      -3.50970934       1.80861369       0.84043487
I        6.03151370      22.79690418       6.34572857      -0.03211576      -0.16249877       0.10163135       1.97800801       0.70923226      -1.89890134
I        6.44306823       3.34031832       6.37528627       0.04895636       0.08896381       0.06890019       1.07443885       0.05968370       1.53503353
I        9.54448272      24.99347062      -1.01875776      -0.21956679       0.03822938       0.22387950      -3.69320232      -0.38373615      -1.39743896
I        2.62966035      -0.07692755      13.52301175      -0.22881412       0.23550749      -0.03630675      -1.19929524      -0.36804863      -2.03990865
I        6.44212915       3.41601501      12.46591664      -0.06312441      -0.01378248      -0.14211222      -1.54680874       0.17218382       1.14235272
I        5.46454126      22.52303837       0.47808325       0.06630039       0.02023578      -0.19022713      -2.05006340       2.45867491      -0.85837449
I       11.93124841      -0.39330549       9.68592136       0.04715802       0.01173023       0.04394206       0.37459606       2.37506423       2.18667636
I        0.83483809      25.41796715       3.64036109      -0.20087900       0.09724814      -0.18665521      -0.23015565       3.07486423      -1.02337952
I        5.20909837       0.05418335       3.12984216       0.18196117       0.27860769       0.00890946       2.20604525       0.89517172      -0.63084891
I        6.18462308      26.01728943       9.78696206      -0.03862461      -0.08020534      -0.19687191       1.19555766      -0.19087644       1.38880739
Cs       8.59292947      22.48504293      15.46276214       0.12412097       0.00051828       0.15321686      -0.36093448       2.11718930      -0.87428622
N        3.07572389       3.56943926      21.76565376       0.37620986       1.52154451       0.39564398      -0.60716328       0.13925191       0.59387658
C        4.32067325       3.76416143      22.54916860       0.80985210      -2.19050162      -0.39484083      -0.22928249       0.56771126      -0.40510623
H        4.51199616       2.72853081      23.01864607       0.01782685       1.44982414      -0.38839850      -0.06894061       0.15008787      -0.00182245
H        4.10375238       4.48278562      23.32779663       0.03642862       0.35091164       0.28508024      -0.35592506       0.23083706       0.03152658
H        5.20765358       4.06007982      21.93728835      -0.70499670      -0.11507578       0.23508837      -0.12890869      -0.11661458      -0.10239007
C        2.00002361       3.40196150      22.75709480      -1.49707858       1.77026780      -1.05407559       0.95602929      -0.33129101      -0.30066577
H        2.00834423       4.33016032      23.44373455      -0.42867630      -1.21610332      -1.05732937       0.35515681       0.02826281       0.17071824
H        2.17442095       2.55183926      23.33524677       0.63164306      -1.57359165       1.16997546      -0.11491373      -0.28906769      -0.38192515
H        1.04972798       3.17870038      22.19901900       0.43858998       0.71180366       0.56236812       0.35589624       0.16746196       0.17267534
H        3.11066964       2.86995562      21.00182597       0.13585691      -0.84397008       0.22149357      -0.14439886       0.02885728       0.13892146
H        2.88779486       4.45127085      21.18181007      -0.00877352      -0.03421559       0.33837220      -0.15423039       0.30022087       0.05540419
Cs       2.59454412      23.06237169      23.23011457       0.05460313      -0.11971332       0.01566849       2.24045392      -0.33974462       0.93160133
N        8.91342741       2.27866951      16.70285603       1.81605459      -0.75696678      -0.46978500       1.11615748      -0.48438987       0.21435627
C        9.81520451       3.20654898      17.49935598       0.83542746      -1.76902150      -1.75820666       0.35737448      -0.33388064       0.27771490
H       10.68226448       3.45188496      16.86376195      -0.37339619       0.17196686      -0.07508266       0.26697397      -0.03776192       0.27561931
H       10.23644438       2.69197206      18.34242099      -0.15532877      -0.33959892       0.78047868      -0.06323062       0.18689396       0.06443878
H        9.22876515       4.03274972      17.71668802      -0.93442953       1.90949437       0.68924938       0.08675081      -0.14131718       0.30846788
C        8.50465436       2.83535743      15.39427167       0.76246590      -0.74510616       0.30398749      -0.98778755       0.67418474      -0.05440478