560
Lattice="25.93762254656499 -0.01572678651490599 -0.2644136119984899 0.011487736621126208 25.689979605958165 0.16506943902630208 -0.2241561427587825 0.14371597963265373 26.119734853343804" Properties=species:S:1:pos:R:3:forces:R:3:momenta:R:3 energy=-2163.920654296875 stress="0.001065207296051085 -0.00019921101920772347 -0.0004865890368819236 -0.00019921101920772347 -0.000520332541782409 0.00023960773251019416 -0.0004865890368819236 0.00023960773251019416 0.00103369343560189" pbc="T T T"
Cs       9.08039869       9.58390795       3.33394678       0.10059011      -0.07639501      -0.03697386       3.21465743      -1.59507535      -1.87103214
Cs       3.20556253      16.21676980      10.17061547      -0.28776970       0.20233238      -0.00384610      -2.77895148       0.62100937       1.45577862
Cs       3.47412936      10.15302786       9.76457715      -0.12785826      -0.03320241      -0.05348421       0.72211748      -0.91474514      -0.92014796
N        9.18992486      15.56360813       2.44074836       2.43441862       1.29373626      -0.87635173       0.19799802      -0.12441516       0.14710906
C        9.57384642      16.35262437       3.66930725      -0.58347108      -0.63229571       0.34745073       0.31138446      -1.33667151      -0.04376518
H       10.56844057      15.96388997       3.95459104      -0.19361166       0.55748683       0.01295517      -0.18451415       0.06895857       0.08857633
H        8.85065598      16.11786921       4.50961631       0.55512822       0.42004011      -0.90938375      -0.09791683      -0.26986452       0.16842334
H        9.51406380      17.42042216       3.32889275       0.35756485      -0.67472897       0.69378433       0.16424995       0.11348807      -0.21159765
C       10.32941416      15.63128930       1.36500460      -0.21563673       0.26111697       1.68227700      -0.33605481      -0.38752548      -0.45498051
H       11.22556614      16.02000804       1.97206248      -1.08478874      -0.29196271      -1.42535706       0.11938531       0.18405094       0.07320969
H        9.97569395      16.19066373       0.48431575       0.21391085       0.54790949       0.52389038      -0.00994807      -0.14391134       0.40518695
H       10.49649273      14.62862380       0.99578649       0.22206376      -0.56367884       0.13165512      -0.08571673      -0.05318779      -0.12756964
H        8.41042063      16.04943554       2.06736412      -1.45510809       0.51322511      -0.70284158      -0.12520243       0.04942317       0.08064845
H        8.90592651      14.61336785       2.58585663      -0.32803170      -1.26217229       0.54923568       0.35115605       0.12671638      -0.22984298
Pb       0.05515517      12.69313036       6.40832013       0.08946672       0.27421597      -0.02030276      -2.71086917      -1.04496138      -2.47819853
Pb       6.55123987      12.78084540       6.13465821       0.15002789      -0.10181555       0.03595710      -2.27767317       0.09705184       0.45620189
Pb      -0.10014459      12.22293079      -0.08744031       0.59694446       0.12784108       0.40862641       1.90577106      -1.83122868       5.84195704
Pb       6.51166596      12.35129843      -0.27575193       0.23990535       0.24145446      -0.05255026       2.46334197      -6.88497237       5.85464634
I        3.50147955      12.31132371       6.57442123      -0.22713843       0.07810097      -0.00948270       2.78735639       2.83420132      -3.03189375
I        9.71059844      13.29627676       6.54001903       0.09376128      -0.15387919       0.09196355       0.33030028      -3.57828700       0.13346345
I        7.05133013       9.47249248       6.52452767      -0.10342411       0.16492475      -0.13186251       0.65333778       1.05494003      -1.75160896
I        6.16510556      16.18554271       6.39799313      -0.14795659      -0.88706494      -0.11832525       0.20660945      -0.08677489       0.11897677
I        9.68873639      11.81006669       0.09806887       0.19569707       0.10767806       0.01789254      -0.35859967       1.13606068       0.88363460
I        2.82481975      13.04582765      13.35820906       0.17724251       0.15800562       0.25136514      -1.34614061       3.44554596      -1.78420727
I        6.50974803      16.04880054      13.49040858       0.02486804       0.23060110       0.02475204      -3.21296368      -0.38088963       0.49768016
I        6.73296836       9.26704536       0.26911505      -0.19944159      -0.14156696      -0.07924265       0.88924475      -1.24425402       2.22320680
I       12.86143870      13.29454074       9.78501241       0.03256543      -0.08272863      -0.00684880      -0.49877012       0.96333901       0.99084082
I        0.36589031      13.66606189       3.51810960      -0.02256680      -0.02295915       0.13761190      -2.00232716       0.80414178      -1.91624843
I        6.77783301      12.97627878       3.00415104      -0.07025649      -0.04776264       0.14019661      -0.75024352       0.03828070       0.28905224
I        5.75802732      13.78393567      10.02781176       0.21541952      -0.25353434      -0.05635949       3.57182569       0.76833715      -2.69163563
N        9.50857085      10.52112486      15.63902299      -0.83037664       0.41779711       1.91546498       0.50792449       0.01221410       0.04863855
C        9.49634545       9.44377822      14.66547193      -2.46517928       1.64089939      -1.49245657       0.38088776      -0.61944872       0.34755385
H        9.90328601       8.61171555      15.10088093       1.43357680      -2.18354524       1.06824391      -0.07844758      -0.19825225       0.10356121
H       10.01413762       9.76490865      13.76113530      -0.15391990      -0.14858589      -0.13342119       0.04636057       0.02297644      -0.03732136
H        8.40552471       9.23114182      14.53410335       0.67684856      -0.10826438      -0.57877819       0.05489245      -0.23304198      -0.09546335
C        9.40949642      10.00945066      17.05499539       1.13587683       0.53371536       0.66025976       0.66923023      -1.08023614      -0.12012648
H       10.41399046       9.57698602      17.23608909      -0.14692261       0.58177609       0.46169596       0.00937615       0.22165911       0.00892636
H        8.78838050       9.12604933      17.19648126      -0.82367857       0.16538318      -0.49479622       0.12221799      -0.17579916       0.03152508
H        9.11771431      10.88282414      17.73220949       0.48944330      -1.24335572      -0.67773497      -0.15602255       0.08488352      -0.21213063
H        8.76746194      11.22327027      15.56836126      -0.80512205       0.03039691      -0.60123325      -0.20859009      -0.01621936      -0.22850176
H       10.31400570      11.11704083      15.57615347       1.37795434       0.31758034      -0.14802481      -0.01148693      -0.08073618      -0.08362704
Cs       2.55357879      16.46014080      23.18011888       0.13382008      -0.11409734      -0.02365649      -0.11302749       1.76372920       0.31680498
N        4.06205742       9.38266271      22.63783664       2.31160087      -0.62572274       0.54918429      -0.08699580       0.36437073      -0.62907770
C        3.14751141       8.23427300      22.90512197      -0.92041341      -0.30652093       0.20675806       0.05490486       0.70883970       1.41244724
H        3.52688603       7.23152369      22.59274282       0.20030564       0.79518783       0.18216320      -0.16276286       0.06782245      -0.23224189
H        2.19175321       8.42004215      22.39988046       0.14402376       0.08263238      -0.44592048       0.09916236      -0.08372542      -0.28483366
H        2.84006153       8.23392447      23.96664447       0.48157527      -0.02989872      -0.07109804      -0.07770491       0.21974219      -0.22320706
C        3.44470661      10.73457908      22.80001583       0.38362463       0.07856035      -1.25797143      -0.98099125      -0.83676333       0.50902756
H        2.87088459      10.73917764      23.71264234      -0.40023452      -0.00149650       0.43417399      -0.13596301      -0.00441326      -0.13846606
H        2.80029270      10.93762089      21.90610881       0.44730342       0.01809643       0.67017032      -0.07259398       0.11657549       0.19336268
H        4.32276837      11.40886370      22.89048652      -0.70144236       0.21232479      -0.21365846       0.04760574       0.17876487      -0.18620352
H        4.57704367       9.26903022      21.68228134      -0.81979925       0.32496532       0.96742630       0.18361642       0.13109753       0.17259555
H        4.87324497       9.41112407      23.36589707      -1.17867209      -0.54872895      -1.18229434       0.41385779       0.09206718       0.28688413
Cs       9.59339044      15.90651647      16.53927313      -0.01604839       0.00276672       0.05284799       1.79262396       0.53791973       1.77635181
Pb      -0.25762176      12.73225311      19.73721511       0.03157748      -0.19716680       0.01872234      -0.28854786       0.35648153       5.23953161
Pb       6.02826239      13.26220885      19.71069201       0.19235288      -0.10601380      -0.13696617       0.58033846       1.80875615      -0.04180477
Pb      -0.43516541      12.89718030      13.26255514       0.03281722      -0.00748780      -0.10375804       0.05518199       0.46634844       0.09409157
Pb       6.13865943      12.89653408      12.99673817      -0.01919753       0.31861441       0.13066024      -2.05074144      -0.99904667       1.98660926
I        3.00747869      13.65866182      19.55202577      -0.13990833      -0.07989125       0.08746143       2.57300436       2.15251103       0.82881651
I        9.77187739      12.82421145      19.60362025      -0.32134379       0.00705425       0.01811078       3.33830762       0.95522021      -1.70669398
I        5.26125813       9.86627132      19.13559713       0.09621843      -0.24348519       0.11430481      -1.56956293      -2.79687959       4.04620957
I        6.48463265      16.34775518      20.48792077       0.03505451      -0.17198112      -0.11127990      -0.01546947       1.63952819       1.04470926
I        9.81268789      12.91928524      12.75172000      -0.40452990      -0.02766429       0.12262682      -2.18059411      -2.58597237       1.00957601
I        3.34539491      13.06623839      26.34595567      -0.33947624       0.09183950       0.00007429       2.94410969       0.13792548      -1.93015264
I        6.20610446      16.02229073      25.36151658       0.06094373      -0.03189339       0.13519819      -1.62943734      -0.08545759       0.74382979
I        5.18090631       9.99913026      13.03817201      -0.01396411      -0.39516378       0.18727374       2.11797767      -1.24238555      -2.78232509
I       12.49399669      13.35236717      22.99567389      -0.09489947      -0.26479851       0.03227774       0.29823642      -0.11801877      -1.12724990
I       -0.41655492      12.80953965      16.53259560       0.06515551      -0.04449394       0.00648660       1.41460879       2.10169541       1.96696932
I        6.80711192      13.22362980      16.56411300      -0.01436361      -0.10031410      -0.09286834       0.79684232      -1.33810306      -2.09687601
I        7.06895581      12.23899972      22.54357091      -0.18877401       0.13230979       0.16887269       1.11447790       1.38155176      -2.15674633
Cs      16.59762105      15.98359366       3.41165362       0.02391853      -0.03181774      -0.03960853      -0.06139712      -0.28072824      -2.88802435
N        9.52957147      22.35028912       9.05036321       1.16881631      -0.02457438      -1.29854524       0.57919926      -0.45393888      -0.69814750
C        9.11186608      23.03997884      10.26374124      -1.75599642      -0.18389630       0.61799503      -0.49264431      -0.31404967      -0.09532193
H        9.92181242      23.26375471      10.90342271       1.54283425       0.31436750       0.46903585       0.04346446      -0.01137862       0.07563797
H        8.53992941      22.29126330      10.85300710      -0.32400178       0.60905315      -0.27351736      -0.15085267      -0.37562863      -0.04849110
H        8.58616900      23.99379188      10.06488155      -0.11868312      -0.54830679      -0.04920894       0.17217513      -0.12332383      -0.02764011
C       10.37342166      21.13657845       9.43857371      -3.34203702      -1.06079022      -0.25075851       0.32350219       0.69200213       0.13872841
H       10.66269379      20.53131153       8.59017239       0.37563493       0.14680215      -0.49530342      -0.17566827      -0.29983797       0.09187969
H        9.72326145      20.44884661      10.08288909       0.46328296       0.90128000      -0.70068147      -0.10040233      -0.02802553      -0.05995493
H       11.14374315      21.44382123      10.06351305       1.75855684       0.85857199       0.96883543       0.12665635      -0.29064013       0.15179940
H       10.11377613      23.02003989       8.45608640      -0.40840132      -0.83443699       0.43867814       0.15736971      -0.04606407       0.16166922
H        8.69673894      22.11337354       8.41991898       0.65821565      -0.05006420       0.50066592       0.15481749      -0.08221544       0.29507262
Cs       9.51527748      15.44837396       9.91449203       0.01004094       0.17647366      -0.10906742      -0.31225205       0.60557376      -2.67024821
N       16.84706431      22.25706645       4.69756432       0.76303561      -0.92186565       1.11456123       0.07797918       0.51944850       0.67863902
C       17.15760082      21.74285150       3.33085758       1.85298911      -0.19983846       1.23016695      -0.15101080      -0.40306020       0.74058912
H       16.23253228      21.70058726       2.78840455      -0.40976591      -0.10710141      -0.64351972       0.35389135       0.16024659       0.13919562
H       17.70558765      20.78170718       3.46599631      -0.71171095       0.17092514      -0.36036341       0.07762981       0.09877735       0.16972486
H       17.93920245      22.42784120       2.90302819      -0.93858749      -0.23149134      -0.06916264       0.08625048       0.17261640      -0.02000722
C       16.24409605      23.57743356       4.58953334       1.74213978       1.35596943      -0.50804618      -0.13280198       0.02425841       0.58857471
H       16.87244931      24.21652069       3.92420096       0.04917810      -0.38293836       0.42804415      -0.07355507       0.05585256      -0.09217363
H       16.12385447      24.11236433       5.51756728      -0.15637366      -0.09899221       0.66592880      -0.08900877      -0.04685115       0.37087539
H       15.34956639      23.48488241       4.04993005      -1.77431436      -0.26485693      -0.61378900      -0.15730005       0.12263317       0.08595465
H       17.71477285      22.13176014       5.34839058      -0.10987094       1.06605837      -0.74786772      -0.02960608      -0.24886343      -0.24954011
H       16.26242943      21.63441525       5.30244455      -0.55690750      -0.26687377      -0.76361231      -0.18706584       0.13058268       0.26405163
Pb       6.38451708      18.95539965       6.97651735       0.09805538       0.57704887       0.21293704      -2.23539482       0.87793166      -4.56390031
Pb      13.02950173      19.14724774       6.33604374      -0.17131738      -0.15710458       0.41374964      -0.96992258      -4.36350323      -1.14156375
Pb       6.61622210      19.22404847      -0.06008564      -0.01478524      -0.13254831       0.11561184      -0.16389499      -1.14941567       1.21650689
Pb      13.07962284      19.34177479      -0.22064618       0.21472293      -0.04498082       0.13453887       0.84284491      -2.66598889      -5.13360120
I        9.64303935      18.54849019       6.79577730       0.01273822       0.10499537      -0.00130806       0.05954791       0.81654519      -4.23469021
I       16.46035620      19.00568833       6.06614011      -0.69902087      -0.08704120       0.01695643      -2.11018228      -2.08307842      -2.29077439
I       13.31523628      15.92610598       6.59938674       0.02188868       0.17152940      -0.07623856      -2.78096450       1.82254959       1.47334865
I       12.56706198      22.58830022       6.78547793      -0.03359366      -0.09366235      -0.01722783       1.00541700       1.86461500      -1.59212170
I       16.32290451      18.56229197       0.32759936      -0.11184442      -0.09044559       0.12608539       0.17526748      -4.06971969       4.09733572
I        9.44542440      19.45116133      12.77405408      -0.22965989       0.05374218       0.22829041       0.98146922       2.89365999       1.01673719
I       12.29094211      22.72246814      13.57724155       0.18806255       0.20398599      -0.22801502       0.91846133      -2.30867495      -0.57970635
I       13.09143236      16.19864531      -1.29058016      -0.08336646       0.12246507       0.37271304      -1.48529933      -1.76364851      -3.26518722
I       19.13880937      19.31783699       9.56733112      -0.07825033       0.01295147       0.36229553      -0.25217909      -1.24300900       1.87442263
I        6.81487509      18.71629392       3.07959141      -0.07602148       0.16445285       0.01943189       4.69023467       0.94666944      -1.97706513
I       12.79895984      19.15690978       3.45238114      -0.06358580       0.05553566      -0.37127393       0.25617913      -1.75287299       2.54550747
I       12.68495281      18.06400220      10.12856396       0.14365623      -0.00154858      -0.18497412       2.82656007       1.78616031       1.09298864
N       15.54043897      16.64136840      16.51511035       0.32254536      -0.20969449       1.29566462       0.94561869      -0.52036958       0.25699935
C       14.59238148      15.81408140      17.30416663      -0.37781046      -0.00422060      -1.45458637      -0.50091744      -0.38686977      -0.66272092
H       14.05631409      15.22897421      16.56306000      -0.20820340      -0.65197408       0.01702988      -0.14123403      -0.11364440       0.03807585
H       13.87815391      16.47501872      17.76389963      -0.29866185       0.24156679       0.70101230       0.00007517       0.13769559       0.00679647
H       15.19977118      15.20200149      17.95199184      -0.06083538      -0.30832034       0.55489236      -0.34105405      -0.02555586       0.27163789
C       16.70670413      15.86753777      16.10369460      -0.74077561      -2.51854982       0.70118758      -0.23718445      -0.67794716      -0.55401630
H       17.35347595      16.40345195      15.46168685       0.74796619       0.67100936      -0.74402197      -0.09200492      -0.21716042       0.21164678
H       16.36414503      14.88374659      15.67555309       0.13836142       0.90303279      -0.21279555      -0.25184963       0.01131197      -0.10249174
H       17.16375225      15.54414962      17.04452458       0.61625536       0.22281798      -0.05969779       0.06315191      -0.24680529      -0.08002193
H       15.86862208      17.28182251      17.24381436       0.15541887       1.22443244      -0.20875869      -0.12807820       0.06703110      -0.04303212
H       15.08179180      17.11777933      15.75389106      -0.36621688       0.62931755      -0.55749311       0.09999293       0.04082406       0.13412244
Cs      10.05939140      22.81315510      23.03008101       0.00984127      -0.00466172       0.07805691      -2.73021254      -2.15896324       1.12776006
Cs       9.28969744      16.30152585      23.20969673       0.07614627      -0.02089914      -0.12064237      -0.95360993      -0.00980020       1.37548072
N       15.79743073      22.24176664      17.05423364      -0.19352998       0.12939564      -1.47401527       0.05870834      -0.20012981       0.21250156
C       15.80546999      21.55364737      15.66977102      -0.58760581       2.42656706      -0.00086880      -0.06174823       0.42295100      -0.05798571
H       14.88112799      21.94684218      15.18775762       0.06241660      -1.04518079       0.35478043      -0.26346181       0.08602306       0.01772048
H       15.97759334      20.49124556      15.78938162      -0.25732529      -0.34979969      -0.11900609      -0.06446904      -0.23488030       0.02825224
H       16.57307339      22.05604421      15.04245374       0.18058335      -0.43743605       0.58315702       0.17517337      -0.21992398       0.24371200
C       15.58324665      23.72180836      16.96651897      -0.77807745       0.54987128      -0.18344318      -1.04868675       0.31410719       0.08256265
H       16.01457140      24.18468420      17.88244437      -0.27641926      -0.04871272      -0.55769501       0.14387310       0.20558288      -0.08699955
H       14.47569132      24.01405751      16.85454690       1.27453111      -0.69119096       0.23648426      -0.25853782      -0.10576019       0.05117999
H       16.08959240      24.05054477      16.05055221       0.15536192       0.18523659       0.23895218      -0.25882476       0.12997338      -0.07700528
H       16.75460090      22.10296225      17.41786811      -0.29691433      -0.38814391       0.72040346      -0.23224287       0.12533681      -0.06259533
H       15.01630946      21.87481491      17.64585001       0.73479897      -0.27038709       0.21329972      -0.11027017      -0.14125460      -0.28885258
Pb       6.43428639      19.56559207      19.99314760       0.03455397      -0.16989733      -0.13010945      -0.48527311      -1.23609399       2.24547368
Pb      12.64185440      19.32769274      19.51004533       0.11228178      -0.16550556      -0.01923472      -0.12467108      -1.33249262      -1.66826841
Pb       6.50891456      19.23627907      13.74834816      -0.18335964       0.06559513      -0.29266768       1.59515553       2.50826173       0.49574497
Pb      12.66581627      19.36309297      13.03082355       0.04586952       0.07733962      -0.12107753       1.17740865       0.73257121       0.74301761
I        9.84769992      19.89799307      20.49102945      -0.61268105       0.11545168       0.19468102       1.73536018       0.39423303       2.17428600
I       15.88473641      19.22026924      19.26465568       0.27244758      -0.23254412      -0.10583517      -1.26505806      -0.84535466      -2.63375148
I       11.34150737      16.26770311      20.00410825       0.17662859       0.02174064      -0.11590239       0.72094879      -2.01197933      -0.83744385
I       13.27194198      22.35793743      19.72303100      -0.03395590       0.25948141       0.07566915      -0.76460817      -0.58772284       0.68158441
I       15.85708017      18.92376294      12.98772292       0.15654414      -0.04422699      -0.01898083       1.56667251       3.66792272      -0.55084913
I        9.84091999      19.86182726      25.47833810      -0.28464274      -0.01719284       0.04517845      -2.73700650      -0.68715204       2.19614237
I       13.26005055      22.80735640      26.35217843      -0.03071570       0.03518704      -0.07620744      -1.20351890      -1.40347648      -0.09790258
I       11.78756456      16.38504500      13.45398362       0.09019961      -0.47608687       0.03100323      -1.06549751       2.67444101       1.43684157
I       18.55822854      19.06344449      22.82356634       0.22958424       0.22463083      -0.10090606       0.51859817       0.64027991      -2.18116277
I        6.86226173      18.76015729      16.79303375       0.04057811       0.05186664       0.02602910      -0.71218012      -0.19288849       0.86727377
I       12.36826899      18.95364598      16.17326328       0.01948118       0.02393517       0.36742994      -3.12264391       2.59374677       0.11749709
I       13.45875660      19.70874172      22.94474038      -0.09419298       0.16480983      -0.13128477      -2.64590121       1.28220457      -1.41235058
Cs       9.57087461      22.37910490       3.31181600       0.03910078      -0.05245611      -0.06684616      -1.45759608      -1.93612464       0.03482466
N        1.85758493       3.29907369       9.52396631       0.57464237      -1.47036477       0.57980722      -0.27532998       1.16437222       0.51874180
C        3.17496544       3.53224059       8.89755713       1.33276676       1.17271154       1.44056326      -0.09785014      -0.75167328      -0.20970163
H        3.18874322       4.41823575       8.23625742      -0.11848178      -0.19455989       0.34656153      -0.27308584       0.26049932       0.03625454
H        3.55909974       2.67068245       8.35497982      -0.46254242      -0.44881590      -0.28383894      -0.10618833      -0.09456540       0.12719025
H        3.89629933       3.63324024       9.78182574      -0.68063876       0.31969315      -1.15952584      -0.11426688      -0.22923414      -0.05503907
C        2.00911424       2.06969597      10.38345608       1.10491780      -0.65633575      -1.06090181       0.15905064       0.32630313      -0.54552658
H        2.74320010       2.18470570      11.20747922      -0.11752248       0.55268001      -0.40625410      -0.14546281       0.10030841      -0.01063122
H        2.41224589       1.25725786       9.70320255      -0.48792924       0.67737627       0.58375689       0.34284282      -0.17750833      -0.10018953
H        1.07523209       1.78724717      10.80681589      -1.04906768      -0.24983502       0.31523751      -0.18703596      -0.04975359       0.24812939
H        1.12894957       3.17690468       8.78483975      -0.17691868      -0.12465143      -0.06691755      -0.09595882      -0.07458529       0.22214778
H        1.50721090       4.05326090      10.13286255       0.18786439       0.63865591      -0.16135411      -0.52451424       0.14437389      -0.13973586
Cs       2.45170947      23.62072165      10.11931950       0.29019617      -0.06161537       0.31236388      -2.39310610      -0.04709727      -0.49225174
Cs       9.42005997       2.44737793       3.07101824       0.06502640      -0.04570802      -0.08586964      -1.98506454       5.74955394      -1.56352750
Pb      -0.34585749       0.34917566       7.08966304      -0.04256662      -0.26272432      -0.32634255      -0.64895043      -0.80273288      -2.76032797
Pb       6.40504321      -0.50411529       6.33966642      -0.06030507       0.19071768       0.77582822       0.03778267       0.14164306       3.80931774
Pb       0.27326128      -0.16334973      -0.05956338       0.00912457       0.06887011       0.21689855      -4.09711017       1.68708240      -1.91678576
Pb       6.12746907      -0.22528360      -0.77376040       0.45747982      -0.07426903       0.32415010      -3.62559885       4.27804130      -1.10457636
I        3.02624657      -0.12966213       6.78258408       0.00474934       0.08904786      -0.08335999       0.72485158       1.21244324       1.01282270
I        9.67331459      26.04654890       6.41836252      -0.29568550      -0.06148180       0.14667747       0.02185410      -0.33846093       1.01930732
I        7.09506537      22.24934593       6.23085436       0.13484587      -0.32403037       0.15710274       0.42636634      -2.02234922      -2.02117484
I        6.01859391       2.95736052       6.55674150       0.10018281      -0.06320651      -0.17500730       0.24301474      -1.40699860      -0.63370311
I        9.14053758      24.86634834       0.04159842       0.48330723      -0.09284379       0.10288281       1.87517821      -2.18739520      -0.82004293
I        2.68009080      -0.00128969      13.48911634       0.11163731      -0.04433036       0.04058981       1.00665722      -0.72325317       1.16006704
I        5.66515978       3.39179226      13.32541852      -0.07242286      -0.04578281      -0.13876447      -0.22896108       3.50119916      -1.62713633
I        6.42326738      22.26859035      -1.11504625      -0.00639171      -0.03265162       0.17513984      -2.44973655      -2.43572337      -0.73380222
I       12.05989575       0.75269740      10.16432344       0.09879267      -0.08817450       0.00063309      -0.52803732      -0.94582304      -3.28461995
I        0.04468960      25.75725504       3.92780702       0.12675916      -0.03277616      -0.02574404      -0.82325386      -0.58520495       2.38631729
I        6.42846687      -0.50909569       3.53948410       0.07522282       0.22665844      -1.06723686      -0.99472803      -1.30356164       1.09563725
I        6.00401355      25.70714147       9.86106137       0.00357247       0.06382246       0.07581318      -0.24612587       0.95835368      -1.68729881
N        9.72748271      21.99182993      15.57760794      -0.69731601       1.07896190      -0.03032189       0.81616327       0.46798866       1.02789721
C        9.43317365      21.74379433      17.05182337       1.24328350       0.68553581      -1.03626386       0.05549524       0.13959239       0.74821975
H        8.34989228      21.74376656      17.18723118       0.04610905      -0.09283863       0.13165833       0.26863194      -0.22257737       0.28551304
H        9.95216049      22.56156560      17.58830892      -0.53626438      -0.06330917      -0.02486258       0.20764246       0.10608146       0.08669669
H        9.96480091      20.84018089      17.33348184      -0.22891857      -0.53250680       0.10309978      -0.03664832      -0.35996855      -0.05174375
C        8.99534787      23.24140322      15.10524560       1.15229082       0.14188576      -1.20415780       0.28356923      -0.12265373       0.15447839
H        9.17589410      23.45309077      13.98834297       0.02164167      -0.53744603       1.39672705      -0.05235456       0.10931672      -0.10427829
H        9.43563862      24.10565421      15.66648990      -0.71896258      -0.56301158      -0.14954403       0.24867416       0.02354507      -0.35033812
H        7.93371162      23.01513392      15.20444923      -0.23549587       0.45063090       0.40926982       0.05907122      -0.00574375      -0.24268368