960
Lattice="27.454720223967673 -0.24829571168688588 -0.06467982477584878 -0.22989675515470012 27.05714533563716 -0.10451736748535033 -0.0820018844910129 -0.12916911456663693 26.620769363611764" Properties=species:S:1:pos:R:3:forces:R:3:momenta:R:3 energy=-4267.0927734375 stress="0.0005021598190069199 -0.0007234808290377259 -2.2934166281629587e-06 -0.0007234808290377259 0.0004160615790169686 -0.00023960460384842008 -2.2934166281629587e-06 -0.00023960460384842008 0.0003214158059563487" pbc="T T T"
N       10.49411956      11.29018066       3.25861723       0.48187027       0.17117620       1.71611664      -0.17520563       1.14149090       0.35167011
C       11.64907962      10.34568792       3.25165485       1.27819761      -0.41398061       1.28619149      -0.36528869       0.58957087      -0.31304535
H       11.55225908       9.62807495       4.11654397       0.00471734       0.65386829      -0.61192998       0.19113652       0.02288185      -0.12041522
H       12.67194017      10.83841309       3.30219915      -1.23439549      -0.08575423       0.18423520      -0.16204822      -0.05385100       0.07036853
H       11.67754038       9.76437898       2.33637838      -0.41956072      -0.16217247      -0.45487793      -0.13338467       0.12828310       0.09660868
C        9.22141024      10.55147675       3.04490497      -0.31605220      -0.22510614       0.20760757      -0.08988166      -0.27752035       0.62519647
H        8.34731207      11.23859762       3.03200373       0.46290428      -0.27969713      -0.36440329      -0.15833837       0.39178770       0.43586418
H        9.08387024       9.90372790       3.92560330       0.04980020       0.03709469      -0.02843719      -0.00666390      -0.02587377       0.11735598
H        9.33817051       9.87593496       2.17649566      -0.23896873       0.49656060       0.06495915       0.05008930       0.19273199      -0.17198443
H       10.73363286      12.00206658       2.56844149      -0.45114007       0.54227445      -0.53646701      -0.14948979       0.09180359       0.09232378
H       10.40292016      11.83292280       4.22893689       0.27936266      -0.73834986      -1.30908470      -0.07575811       0.02124765       0.35679043
N        3.21098871      17.90507157      10.23134559       1.67005227      -1.59425996       1.46009426      -0.58217997       0.50008188      -0.58536248
C        3.99286765      16.54198950      10.05287362      -1.34272875       0.15975153       0.60271733      -0.23020300      -0.04818358       0.07550236
H        3.74730339      15.79949094      10.86546666       0.02148440       0.86128825      -0.64582977      -0.22740750      -0.09933483      -0.12713984
H        5.06495515      16.75574175      10.02114840       0.00780847       0.13539828       0.15054748      -0.11622224       0.10244732       0.28645080
H        3.67346170      16.16840405       9.06661447       0.02394228      -0.00526545       0.20839393      -0.05771422       0.20026194       0.07321775
C        1.83313419      17.99152954       9.81382230      -0.46569362      -1.35341160      -1.01573348      -0.32895906       0.16711362       0.57742403
H        1.24000603      17.76863955      10.67272625      -0.64746854       0.11477535       0.84576722      -0.15237575       0.06860943       0.01624086
H        1.58394687      17.16452399       9.09952938       0.49600583       0.78477944       0.06630652       0.20528519       0.08860387       0.05519608
H        1.63149198      18.98741266       9.43863491      -0.30094400       0.24621389      -0.29049604       0.09573488      -0.15264447      -0.15836250
H        3.84859660      18.51152592       9.76954210       0.68871306       1.38441238      -1.56422857      -0.08824258       0.37124249       0.32294078
H        3.30186533      18.35812530      11.17710065      -0.07022920      -0.79740784       0.24013623      -0.06801000       0.25262321       0.14451663
N        2.88107033       9.40630359       9.99290770       0.89601041       1.11378205      -1.47170254       0.15956034      -0.33249246      -0.30023129
C        3.92282350       9.85011216      10.97291599       1.73006791      -3.10417167      -0.27525627      -0.57863325      -0.86154933       0.14200695
H        3.45491638      10.26196836      11.82521987      -0.64259294       0.87070190       1.03680818      -0.25752000       0.10269589      -0.00369456
H        4.59056955      10.54852090      10.44435691      -0.04938943      -0.10283266       0.31670497      -0.20195432      -0.14610420       0.05147341
H        4.51230303       8.89350819      11.36076691      -0.85305338       1.81739208      -0.90224988       0.05338541      -0.04849179       0.09839401
C        2.11747381      10.72925132       9.60281708       0.92540380      -1.60828843       0.62062872       1.14632809       0.28472821      -0.62067162
H        1.94770884      11.10505849      10.62456836      -0.55298694       0.66774294      -0.66730522      -0.11345354       0.10371077      -0.12986683
H        1.21983661      10.54738023       8.98020739       0.35238322      -0.05705427       0.33148916       0.08570257      -0.40367988       0.23970355
H        2.90033952      11.28272596       9.06859011      -0.40426616       0.37511125       0.08147619       0.05066668       0.18074057      -0.03719277
H        2.23478780       8.70993729      10.42616452       0.10487343      -0.08228588      -0.54170240      -0.05611230      -0.01122541       0.05470268
H        3.43112438       9.04571048       9.12151898      -1.54099151       0.03445187       1.35597700       0.12726979       0.25708351      -0.01295705
N       10.48646854      16.80069731       3.08163348      -0.83990149      -0.01440794      -1.15017339      -1.12263003       0.20777038       0.22104455
C       10.59702351      17.88729473       1.97304030      -0.79635449      -0.72406407       0.51045757       0.11941673      -0.33039651      -0.40793623
H       10.50099498      17.42993343       0.94358781       0.01946740       0.27453702       1.09037661       0.11110538      -0.04615608       0.02485298
H       11.58603384      18.29804691       2.17484269       0.10380050       0.30421864      -0.45914033       0.13098372      -0.04588837      -0.22526475
H        9.80796421      18.65849483       2.15824324       0.44771566      -0.61823553      -0.03455662      -0.05433481      -0.02390560       0.17369074
C        9.11030502      16.41563159       3.58119073       1.09542734       1.07909494       1.27020353      -0.65232030       0.19932231      -0.09615437
H        9.20988196      15.49483075       4.16251605      -0.06252220       0.22814923       0.30637795       0.22285790      -0.01799208       0.06158794
H        8.47830480      16.24537268       2.78298197      -1.14339133      -0.59075906      -2.14950235       0.10549519       0.03494598       0.07858883
H        8.63699822      17.27361272       4.11642553       0.64468763      -0.51001276       0.12494909      -0.04271265       0.19572811      -0.09701218
H       11.02948966      17.11460007       3.86916755       0.50502218       0.54464183       0.99945644      -0.03969843       0.06642030       0.00368300
H       11.00341749      15.94275367       2.80531036      -0.09448118      -0.00537527      -0.36024373      -0.06345517      -0.07456771      -0.04451325
Pb      -0.28037114      13.66988397       7.02199915       0.62091755       0.04507335      -0.05009872      -0.97181671      -0.74822528      -2.09117201
Pb       6.18634085      13.94676144       6.53670007       0.45816638       0.00222293       0.09428254       0.21628672       1.10966272       5.29268272
Pb      -0.19514530      13.50717004       0.20425490       0.09256403      -0.10867352       0.04921948      -0.16649853      -2.93050976       2.91403693
Pb       6.90240762      13.44637085       0.03543979      -0.50276506       0.04227800      -0.41227140      -3.27829508       2.74200304       0.00798155
I        3.27811719      13.99107446       6.11893349      -0.31490924      -0.08824865       0.08855910       0.65515197       3.46649028       2.64910737
I        9.89040054      13.18785680       6.30462893       0.22345838       0.10829374      -0.16214848      -0.09738698      -2.01852904      -1.09414933
I        6.52855587      10.55184993       6.15827510      -0.07669059      -0.18566298       0.09350742       2.25779608      -2.46244287      -1.53889798
I        6.71592994      17.01391848       6.62413794       0.01429375       0.12721004       0.04825878      -2.93193958      -0.34281485       1.10356922
I        9.88611683      13.76360927       0.08873681       0.36964833      -0.10117710       0.03332043      -0.28081137       2.43994194       1.91632892
I        3.51005610      13.89318813      13.39674562      -0.17080075      -0.12484054       0.05361610      -1.34753611       0.18678002      -1.77320395
I        7.15046515      16.72683978      13.22568962       0.05399743       0.15535546      -0.04223502       1.54694618       0.42073241       2.13734107
I        6.72841285       9.76326356      -0.04978167       0.01105276       0.41701510      -0.04715650      -0.73300636       2.62366559       2.25595143
I       13.27248370      13.00066688       9.23790716      -0.25628716       0.22456208       0.10212463       1.96182955      -1.35306548       0.75031799
I        0.14632295      13.07578246       3.27427911      -0.01502901       0.10736055      -0.03493032       1.54592128      -0.42751237      -1.50055782
I        6.15666621      13.60551851       2.87735595       0.18756130       0.20198060       0.38388736       3.06451102      -3.15391235      -1.06373648
I        6.90824346      14.05162538       9.59023061      -0.03228468      -0.24610480      -0.00334826      -0.13123200       0.81073649       5.89053227
N       10.78112440       9.52138741      17.40577581      -0.36469875       0.92113350      -0.30828481      -0.65072129       0.55777070      -0.83410699
C        9.90461863      10.59550713      16.74817782       1.75807679       0.39846044      -1.16874572       0.19374574       0.23946863       0.99373961
H       10.63196604      11.40259307      16.41830059      -0.67958651      -0.47076140       0.69414173      -0.05531126      -0.11646755      -0.00610918
H        9.10293710      11.00473791      17.33782222      -0.29498127      -0.02064181       0.71746849       0.15222698      -0.04238727       0.36722039
H        9.54046938      10.23925592      15.78366352      -0.35516710      -0.54770035       0.07974806       0.01856793       0.02842783      -0.03452490
C       11.86405961       9.16438660      16.47245768      -1.77474173      -1.99230016      -1.94185726      -0.88946635      -0.46470460       0.38748606
H       12.48308709      10.00849671      16.38259313       1.08656596       1.18082477      -0.23621730       0.18834653      -0.07852486       0.25406832
H       11.30519879       8.95571588      15.49677330       0.84742892       0.40392988       0.75623429      -0.17237057      -0.04492180      -0.15809031
H       12.43843798       8.22893288      16.63353235      -0.28144253       0.44246724       0.71124531       0.00468124       0.12816100       0.05011673
H       10.26104595       8.72204162      17.77277818      -0.26850512      -0.33022233      -0.06628569      -0.16210837       0.08450245      -0.13502995
H       11.25757092       9.97466989      18.19037537       0.13454893       0.16352938       0.84386270      -0.22259251      -0.04382639      -0.12206486
N        4.14411629      15.96674577      23.21195060      -1.06678152       0.27120051      -0.76182139       0.66691354      -0.19980074       0.33000611
C        5.20071417      16.92315762      22.75041197      -0.34234029      -0.82916031      -1.15942929       0.31343512      -0.41383443      -0.19935283
H        6.19110048      16.58650321      23.07320827      -0.10104464      -0.05644279       0.06054320      -0.18150330      -0.20524219      -0.04503009
H        4.97689813      17.89471432      23.15951331      -0.15523938       0.53768865       0.14097167       0.10871018      -0.05117412       0.03735457
H        5.13659280      16.91516269      21.62104459       0.21389998       0.17145482       0.97478343      -0.27197350      -0.28892115       0.14014741
C        2.75238839      16.32525757      22.56250218       1.19347812       0.77646464      -0.03887161      -0.72692564      -0.44829645       0.50686747
H        2.89336295      16.61020809      21.48193651       0.12213894      -0.37487580       0.87984334      -0.12054470       0.00079652       0.01195757
H        2.38653308      17.21928552      23.09988473       0.08200379      -0.25065299      -0.10598278       0.16652501      -0.09282488       0.03036650
H        2.03686206      15.51304341      22.63331939      -0.02240687      -0.44295707       0.20570253      -0.03804845       0.14869451       0.24364819
H        4.07419118      16.06454283      24.26550744       0.02235963      -0.84646862      -0.93499637      -0.05548352      -0.00919305       0.00393769
H        4.40648480      14.98141387      22.88157477      -0.12449656       0.81789838       0.86931834      -0.12067772      -0.09683423      -0.06544111
N        4.00625461      10.03302515      23.08082135      -0.29277388      -0.71738612       0.11883208       0.38925372      -0.30860186       0.99166369
C        2.78800085      10.81127800      22.78055603      -0.73383949       0.23690994      -1.16011231       0.93351758       0.29518907       1.03854506
H        1.92897624      10.16046893      22.49454252       0.61949961       0.15836227       0.10272237      -0.13057637      -0.06289270       0.01705262
H        2.94608114      11.58277987      21.99935956       0.18666274      -0.48758098       0.09362624       0.21284367       0.00758899       0.04324507
H        2.53591891      11.35204509      23.66506612      -0.40557731       0.43175245       0.94359281       0.31153718       0.15326741      -0.30961371
C        3.62755434       8.82988923      23.97215508       0.51378060       2.42030892       2.43896764      -0.24463920      -0.36460956      -0.37575470
H        4.42420751       8.56680258      24.74989105      -0.62593777       0.41003218      -1.23033486      -0.03134717       0.31647535       0.16499451
H        3.33790684       7.99704127      23.38588539      -0.25348176      -0.83829754      -0.87013775       0.14433754       0.00636683       0.13323450
H        2.74809655       9.25057914      24.54696527       0.72114610      -0.77600073      -0.38905654       0.05419527      -0.02656362      -0.17457662
H        4.67999062      10.73363574      23.45816632       0.10857182      -0.71598863       0.18780633       0.03154259       0.33186132      -0.27233455
H        4.40166417       9.66592515      22.20609846       0.35556325       0.00512156      -0.28625073       0.08662601       0.04379990      -0.01943459
N       10.60755298      17.66714142      16.09389214      -2.20355850       0.58479320       0.53886082      -0.66630523       0.62417797       0.15889537
C        9.85387922      18.57974122      16.98321454      -0.69221290      -0.64151570       1.15963388       0.45743194       0.96970417      -0.00389421
H       10.22758042      18.42022407      18.00482194      -0.14453213      -0.06706096      -0.03016502       0.04077736       0.04068001      -0.07330576
H        8.79062041      18.33799649      16.91306949      -0.09513041       0.14652728       0.03546238      -0.19395643      -0.06719217      -0.19233040
H       10.07141564      19.59974351      16.72228355      -0.06291224       0.54441114      -0.38832765       0.08301576      -0.03764145       0.25711609
C       10.62238198      16.24799920      16.50091067       0.79774810      -0.56444111       0.16328490      -0.28322012       0.64764450      -0.98736339
H       11.41889719      16.21713004      17.35005920      -1.71234267      -0.44735270      -0.91218151       0.05582701       0.05517484       0.08013165
H       11.06129401      15.76498139      15.60582392      -0.11541822      -0.37648231       0.46413732      -0.14732129      -0.10757533       0.08921438
H        9.55680370      15.83149500      16.65367271       1.55235833       0.74294913       0.25502302      -0.19302018       0.07890623       0.10871955
H       11.48371562      18.11022353      16.18322632       2.27751526       0.12743552      -0.75263484       0.10643421       0.03850224      -0.14417612
H       10.20655964      17.79554892      15.16124134       0.34393935      -0.01879523      -0.56870006       0.32493585      -0.24828839       0.12116118
Pb      -0.42041736      13.15834549      20.02062970       0.23394516       0.37661559       0.07937300       2.41216386      -0.03351812      -1.98096167
Pb       6.68403493      13.61476841      19.82686980       0.07345004      -0.09726223      -0.00111842      -2.49781260       3.88468567      -1.26296489
Pb       0.31464781      13.04871980      13.84611491      -0.06550849       0.19924099      -0.17643125      -1.03280051       0.90867263      -3.63613235
Pb       6.68377634      13.42150489      13.47573077       0.03292901       0.00123385      -0.01859051      -2.50382099      -3.05400880       0.53007376
I        2.84617837      13.59358838      19.74654376      -0.09502132       0.04882810       0.09007409       0.84139405      -0.31653747      -1.10703474
I       10.09572034      13.56080085      20.00748978      -0.28822157      -0.08137263      -0.15856916      -1.68444287      -0.38909539       1.28172915
I        6.10172040      10.42402447      20.01816078       0.26606117       0.06418694      -0.03084190       1.86574991       0.68110071      -0.75261614
I        7.30350059      16.93756557      19.88303608       0.04747205       0.20395134      -0.07498129       0.95539111       0.85598722      -1.40493471
I       10.08913534      13.31981791      12.85380727      -0.17677053       0.00940797       0.06586963      -2.23720201       0.72536403      -0.21080017
I        3.46420193      13.65373623      25.92717168      -0.06461699      -0.02958109       0.16791639      -0.01680507      -1.75520384       2.07394904
I        6.96294656      16.69072104      26.40171798      -0.07817453      -0.04403323      -0.01663594       0.30952500       1.76270279      -2.19067766
I        6.34864948      10.24617764      13.92792599       0.14671641       0.14501822      -0.07838446      -0.35619176       1.17996870      -2.30629214
I       12.96888100      13.25049678      23.06602191       0.03289099      -0.07812619       0.04114351      -0.39792802      -4.71849618      -1.12258931
I       -0.45250536      12.88222417      16.85340740      -0.05170193      -0.00527216      -0.13466377       0.29008068       1.47742712      -0.05410634
I        6.81308225      14.10924534      16.50995039       0.02456656      -0.16344452       0.00362567       4.80266519       0.72241059      -0.34270279
I        6.52545601      13.22544997      22.90597959      -0.05787565      -0.01677523       0.11708651      -2.84365946      -0.73357177      -1.59378618
N       17.21337138      17.53575612       3.32630036      -2.79221335      -1.57955622      -1.29828452       0.62031055       0.80700341      -0.72825323
C       16.57792184      16.92320091       4.53248165       0.50373762       0.84382171       0.12909829       0.10631723      -0.89573979       0.03384040
H       16.14001508      16.01794928       4.14826677       0.22985746      -0.95047554       0.45761296      -0.04576776      -0.08472990      -0.31742169
H       15.74866366      17.52921272       4.84971634      -0.50990261       0.64300538      -0.01941750      -0.00456291       0.13138164      -0.01023184
H       17.29162813      16.97877057       5.38642653      -0.20142703      -0.90185746      -0.59686530      -0.16353753       0.16865431      -0.00677799
C       17.81437065      16.60480110       2.32535438      -0.38635075       0.04425579       0.52086327       0.46650455      -0.26698478       0.05360175
H       18.50931883      15.92759353       2.83661925       0.09267376       0.13950184      -0.05142978       0.18940484       0.16314979      -0.18851949
H       18.26391780      17.26538835       1.58821170       0.27087682      -0.22921968      -0.33758881       0.05354082       0.02883725       0.02744428
H       16.97990610      16.04979674       1.90110767      -0.03746741      -0.25752061      -0.25322196      -0.07581545       0.10627639      -0.11271086
H       17.88243904      18.19087684       3.54270466       2.24154795       2.41279413       1.04930713      -0.04142160      -0.15846342      -0.03052242
H       16.46020858      18.03103366       2.79823328       0.31029954       0.10331264       0.32969570       0.03607748      -0.20216820      -0.07110861
N       10.48243377      22.70125293      10.47858791       0.57417376       0.34070241       0.68467986      -0.00009499      -0.32255125       0.76735799
C       11.39434505      23.86431829      10.01283107       0.28084428      -1.10356068       0.41251756       0.34099352      -0.71987687       0.92465727
H       11.10054589      24.05043424       8.94890462       0.28709761       0.30039535       0.92542822       0.19633508       0.21286518      -0.15064895
H       12.46838703      23.55320214      10.09463185      -0.76948249      -0.09374538      -0.36109113       0.17842754      -0.17033706      -0.21785721
H       11.31826438      24.67569546      10.76886635      -0.53415054       0.04162313      -0.79496763       0.01478345       0.02752212       0.02096569
C        9.12451611      22.84848568       9.88449330       0.53717315       0.98330163      -0.80695807       0.82744129       0.08445593      -0.33033508
H        8.94146563      23.93743292       9.95493906      -0.03867371      -0.26469509      -0.74472826      -0.19089716      -0.07969602       0.13439204
H        8.33351472      22.45831147      10.46537899      -0.68237369      -1.06964691       1.05833622      -0.15987701      -0.17545556      -0.15479101
H        9.06447568      22.39328686       8.86340389       0.24765518       0.66221906       0.49325577       0.18146264       0.02476013      -0.00790544
H       10.40504003      22.72215138      11.54403354       0.26589525      -0.12858728      -1.03287579      -0.03863323      -0.14460282       0.01466280
H       10.97242777      21.77958433      10.23783663      -0.42028119       0.49962478       0.04597419      -0.06119868      -0.00841715       0.06162579
N        9.78210698      17.59583936      10.67873953      -0.25961376      -1.99800086       0.64720600       0.56175497      -0.13036586       1.00916871
C       10.47369548      16.47702876       9.92764075       1.39397832      -1.02916926       2.21786436       0.55017426      -0.09972061       0.94109063
H       11.35567479      16.86084371       9.40339024       0.02887793       0.29625222       0.13410326       0.04932478       0.01483412       0.18907311
H        9.84649594      16.02782055       9.18972635      -0.96461704      -0.32041711      -0.39782994       0.14603256       0.14846861      -0.11491735
H       10.83888599      15.69657468      10.71585885      -0.69156934       1.18802358      -1.34162401      -0.05645715      -0.28183154      -0.14604658
C        9.37097007      18.62385682       9.72893313       0.76595506       2.55869128       1.86430985      -0.47871363      -0.87362506      -0.35357299
H       10.27415777      19.26800025       9.54400573      -0.44234277      -0.99445945      -0.88666735       0.13045364      -0.49344952       0.00206276
H        8.78606833      19.37908399      10.27300070      -0.34966344      -0.24710701       0.20985720       0.11296878      -0.17495135      -0.05472430
H        8.74901384      18.29944660       8.93493414      -0.12331047      -0.77462344      -1.03713432       0.05367764      -0.04169743      -0.07818963
H       10.49104740      17.99822589      11.31065494       0.10670084       0.23678492       0.17704520      -0.07725807      -0.24945476      -0.03033050
H        9.04710343      17.19614493      11.42818962       0.59253264       0.76666686      -1.61988943       0.11074147      -0.02046573      -0.01512720
N       15.96137013      23.78506980       3.45840245      -1.40180804      -1.46802340      -0.36018576      -1.06190805       0.23111675       0.47021547
C       16.66825872      22.61180589       2.73551915      -0.00874215       1.29266955       1.27884049      -0.32812211      -0.92515677       0.07149525
H       17.49428038      22.34537024       3.40713021      -0.13441536      -0.38361668      -0.19131897       0.05382090      -0.05838986       0.10331279
H       17.05129068      22.88581183       1.76871897       0.30132126       0.73320537      -0.49749379       0.18669524      -0.05302818       0.03810852
H       15.91822354      21.88444858       2.54716574      -0.58350154      -1.14309287       0.25194354       0.22837775      -0.12333348      -0.21346153
C       16.80815124      24.97421056       3.46825955       1.00389695       0.17900269      -1.09424779      -0.54857619       0.08037524      -0.64904995
H       17.28122397      25.00396136       2.45047520      -0.07722103       0.22533420       0.82088991      -0.01469186       0.32560653       0.17439733
H       17.55404825      24.94086383       4.26480483       0.19522077      -0.34394077       0.02564129       0.08224391       0.04771212       0.14641509
H       16.27074390      25.89457161       3.60764447      -0.76703389       0.36434575       0.04049593       0.10947360      -0.19912511      -0.18740218
H       15.70540936      23.43175645       4.44611126       0.07273859       0.67045292      -0.96941816       0.10657350      -0.18844385       0.22675576
H       15.02129203      23.96709241       2.94237441       1.32048877      -0.11629032       0.73536930       0.19692059       0.07402036      -0.04053966
Pb       6.56658334      20.61836863       6.56405916      -0.10317301      -0.30116140      -0.08172948       1.31480920       0.72613168      -0.72573677
Pb      13.10812304      20.16035105       6.63182649       0.17300133       0.13784619      -0.32219892      -0.45504249      -4.45782518       1.26997099
Pb       6.95412842      19.99955729      -0.13977310      -0.12100536       0.20750420       0.13189892       0.77899848       1.75259519       0.88504450
Pb      13.61169838      20.36696080      -0.55022326       0.01909275      -0.03813561       0.69284883      -3.58665584      -4.71611648      -0.27907521
I        9.53443390      20.92146011       6.08862683       0.23666448      -0.12975364       0.13897028      -2.28267257       1.23589490       3.74273601
I       16.13157062      19.98407192       7.10562938       0.03252259       0.00943020       0.01445244       1.27894972       0.39105860       4.17797978
I       12.54116679      16.89689041       6.31566986       0.00193323       0.10240162       0.01582713      -4.25990035       1.16680855       1.27215212
I       14.13542008      23.48371480       6.68350269      -0.20860096      -0.06392782      -0.26015818      -1.14778962      -2.72957236      -2.31295817
I       16.76852057      19.53343709      -0.07939836       0.09124044       0.04487555       0.04821957       0.86293546      -0.17248893       0.20850065
I        9.95267166      20.06973643      13.26933254      -0.02385635       0.18350508       0.16722377      -4.32800523      -1.36423616       0.59636651
I       12.79385797      23.73685738      13.26471275       0.08647381       0.00031380       0.13534304       0.84033520      -0.39945995      -0.60124616
I       13.23875302      16.92107457      -0.20695856       0.08656386      -0.07623263      -0.08507196       0.23597612       0.54688810       0.36769329
I       20.27084196      19.80369546      10.09275833       0.03401637      -0.06974600      -0.20227790      -1.02221354      -4.02998275      -2.34716014
I        6.64899468      20.56469086       3.28579637       0.07687077       0.08188685      -0.02688570       0.31957165      -1.14491444      -1.80465464
I       13.79886660      19.90164744       2.96973010      -0.04690328       0.03403446       0.16504541      -6.12263754      -0.00079142      -1.82872507
I       12.81524561      20.30417829       9.65809157       0.18948257      -0.11509104       0.24672132      -4.24090734      -2.02526314       0.95548005
N       18.23544634      16.08968125      16.38737330       0.31772595      -0.74107823       0.50643443      -0.33114178      -0.40975724       1.12722364
C       17.60591267      17.00296283      15.48768996      -0.05715198       0.25710798      -3.32293445      -0.14884472      -0.18855883       0.29035068
H       17.09277743      17.72000874      16.08468574      -0.60928178       0.87200988       0.29395247      -0.04943490      -0.20573465       0.06578237
H       16.93472096      16.46113391      14.79985378      -0.20517368      -0.00004096       0.41577833      -0.10217038       0.06627413      -0.27378321
H       18.34902406      17.46278778      14.76950176      -0.37783500      -0.15311945       0.99400162       0.27440977      -0.16983418      -0.13199543
C       17.26990970      15.47284984      17.34626231       1.01257749       0.11697288       1.15425855      -0.54054944      -0.25098567      -1.13047800
H       16.31970245      16.00671597      17.38574812       0.13570977       0.48535551       0.04480123       0.20529809       0.00704742       0.30587603
H       17.80400922      15.44321075      18.34588915      -0.80657820      -0.13014076      -0.75281395      -0.12020303       0.00048780      -0.00165269
H       17.04153496      14.48187936      16.99569776      -0.02328157      -0.67615817      -0.10431093      -0.14684389       0.23401143       0.09613818