320
Lattice="25.261821494211024 0.2671208574857814 0.16395058595465056 0.40722574472115447 25.364494606168236 -0.22378063032066156 0.0848740716928094 -0.23386192447237505 25.33642382610968" Properties=species:S:1:pos:R:3:forces:R:3:momenta:R:3 energy=-903.3615112304686 stress="0.00067061121808365 0.00023641910229343924 0.0003366558230482042 0.00023641910229343924 0.0002993814705405385 -0.00030181455076672137 0.0003366558230482042 -0.00030181455076672137 -0.00010234251385554673" pbc="T T T"
Cs       8.90621986       9.81858007       2.65238666       0.02227039      -0.11128220      -0.01532905       0.96984403       0.28965619       0.62805455
Cs       3.77654763      16.27063238       9.26411735      -0.09358597      -0.03317767      -0.00616816      -2.67847268      -1.48682225       0.74402497
Cs       3.15704015      10.18919898       9.22495074       0.16655656       0.06466083       0.16868683      -0.15256472       1.42936334       0.47816188
Cs       9.38680734      15.59091330       3.29606255       0.01667602       0.03591106       0.01725380      -0.37236726       0.79327110       1.55961065
Pb       0.49740221      12.55515636       6.12336678      -0.04255677       0.34789961      -0.26618051      -0.84695926      -2.43008617      -0.23244458
Pb       6.72511553      12.95362146       6.36306709      -0.21404061      -0.07332388      -0.16118556      -1.87492415       0.67835073       0.45419503
Pb       0.35509538      12.89071704      -0.00626696      -0.06419525      -0.02408722      -0.20401279       4.08323725      -1.83074037       1.24077569
Pb       6.21044730      13.04237489      -0.13185265       0.29209307       0.06423087      -0.26589221       1.00922492      -2.01464916      -0.40489879
I        3.57439319      13.68920429       6.53875000      -0.38820849      -0.15544789      -0.07091367       0.27137047      -2.55429840      -0.72788404
I        9.58705025      12.02661751       5.71868922       0.28269359       0.18391117      -0.07122490      -0.09509105       1.20103428       0.24436457
I        6.29861634       9.74354025       5.48034336      -0.20381303       0.09570389       0.08532998      -2.95834868      -1.04655024      -0.75943088
I        7.11021535      16.14514788       6.29056478       0.06858593      -0.12455370       0.11327624       0.91094773      -2.05827575       0.10897862
I        9.64041605      12.67219806       0.09687759      -0.02760065      -0.16462164       0.05363837       1.71580814       0.69717196       0.97087035
I        2.99380519      13.50326019      11.97034349       0.07639281      -0.03701284       0.05402316       0.30628730      -0.89078076       2.66047028
I        7.08563241      16.16594145      11.98161106      -0.21349887      -0.02396773       0.09741264      -0.15442467       1.97733800      -2.35178836
I        5.72872395       9.93390896       0.07358815      -0.01403820       0.07568257       0.08174208       0.28234254      -3.37797529      -0.44139534
I       11.76049099      12.72083274       9.46632710       0.14082883       0.20002673      -0.22516285      -2.73579048      -3.19861625      -0.91255847
I        0.84997610      12.17634334       2.99955733       0.01079446       0.06629904      -0.13154322       1.45700041       2.42524075       0.39580455
I        6.26854174      13.37696463       3.07933300      -0.09629627       0.01290016      -0.19672750      -1.13966633      -1.59704160       1.56352721
I        6.72210207      12.69623319       9.47715049       0.04038431      -0.16204796       0.01064849      -1.00851307       1.52915169      -2.79078314
Cs       9.03794868       9.38479459      15.63586037       0.00611943       0.15307715       0.02328679       2.66921459       1.21985704       1.81079186
Cs       3.78006791      16.40326322      22.01040211       0.07906814      -0.06749020      -0.01154005      -4.81734137       0.24209427       0.88480383
Cs       3.30480687      10.25442825      21.54073834       0.04981244      -0.02873289       0.04248117      -0.45131826      -1.89420046      -2.86960644
Cs       9.28146187      15.67363167      16.28745127      -0.16668976       0.08772918      -0.40440749      -1.25869479       0.27349815      -2.08835577
Pb      -0.02868060      13.05166861      18.95203895       0.16045007      -0.05507923      -0.13284229      -1.15823350      -3.06722096       0.70423536
Pb       6.31363876      12.76300476      18.56822133       0.16385083       0.04399489       0.20720445      -2.34671017      -0.76507549       0.85824204
Pb      -0.16702434      13.02437814      12.21628776      -0.05430057      -0.08364961       0.39622056       1.82448630       3.17913135       0.94046447
Pb       6.00182582      12.92784845      12.50276716       0.28483940       0.25989138       0.24810150      -3.36586458       0.93617835      -1.05499696
I        3.24200138      13.39530350      19.05307821      -0.12695756       0.00672947       0.08086319       3.22826092       2.64138089       0.39663772
I        9.56006447      12.51820004      18.20500960      -0.11573961      -0.24737735       0.06395482      -0.67893683       0.54125993      -2.75693294
I        5.72222078       9.77632980      18.13877986      -0.12255266      -0.13400501      -0.08217859       0.43093436      -0.43650494       3.10672924
I        7.17682312      16.08815292      19.51022495      -0.09719466      -0.04169317      -0.09018036       2.29876596      -0.14197513       1.15917471
I        9.49233553      12.33180640      13.04121669      -0.06289869      -0.04410215       0.00235711       0.19621517      -0.11201681       2.60301331
I        3.48504425      13.43458975      24.11680562      -0.22941727      -0.16171766       0.16675399      -0.41481853      -0.14255131      -1.67424484
I        6.84052677      16.04750591      23.99948921       0.03072423       0.01863459       0.43898004      -1.04385757       2.02942853      -2.74999839
I        5.78322783       9.93638060      13.23782874      -0.12692994      -0.17055565       0.05604718       0.36377311       1.56512849      -3.16403433
I       12.01690436      13.44579737      21.72505411       0.38533264      -0.26255388       0.29368493       2.97863000       2.65882928      -1.62000130
I       -0.34585787      12.68417850      15.50569007       0.22199036      -0.06930366       0.08825867       2.02817524       3.28392213       0.67729593
I        5.74554233      13.92564535      15.75667250      -0.01992514      -0.07112509      -0.20398448       2.72708286      -0.22835655       0.00990146
I        6.87928386      11.97156494      21.92689034      -0.00621930       0.04058437      -0.00654659      -0.07328358       0.23230266       2.94536868
Cs      15.30263140      16.43536697       2.05205026       0.13950135       0.19169053       0.14322351       0.79315042      -3.02844523      -0.90661706
Cs      10.76008502      22.73615097       9.63157963      -0.24852978      -0.01985717      -0.19793779       0.31059210       1.88816595       0.20878944
Cs       9.63076018      15.82492847       9.46508960      -0.00835669       0.04790649      -0.09027806       1.73113045       0.90979582       2.91210771
Cs      15.80075811      22.37934756       3.07045881      -0.18166673      -0.13859429       0.06114864       2.46412589       0.41297541      -1.05987415
Pb       6.50853235      19.14120523       5.90992108      -0.10405610       0.26144186      -0.03293485      -3.45509499      -0.14255492       0.53279088
Pb      12.50145894      19.66074109       6.20333625       0.04929033      -0.83919510      -0.00893626      -0.81408498       1.53726104       3.45675748
Pb       6.54617303      19.43877471      -0.21849826      -0.32171262       0.00559187      -0.11764370       4.05284605      -0.94969001       1.95915139
Pb      12.58423353      19.54030423      -0.27661167       0.04516854      -0.27452448       0.08311723      -1.50284901       0.86255387       2.46278539
I        9.44402535      19.77345898       6.92119857      -0.08267722       0.11492332      -0.15325790      -2.60729470       1.59776851      -0.89406576
I       15.74164964      18.87351157       6.20783034       0.02308500      -0.01883039      -0.09278231       2.76915567       1.12261007       0.98322052
I       12.32405236      16.00675062       5.94444056      -0.17866128       0.33058259      -0.06193869      -1.82368845       0.29848531       0.53982100
I       13.11466400      22.48344720       6.32353883       0.14452417       0.69451748       0.13936916       0.70808407      -0.39011409       2.29094908
I       15.94051228      19.45793428      -0.21993863      -0.22863472      -0.24467893       0.00998892      -1.38805184      -1.39567076       2.02063953
I        8.93622014      20.14650828      11.34815462       0.13346041      -0.17765998       0.37506259      -2.23868482      -1.92603454      -0.96278885
I       13.34660964      22.57330396      12.27297557       0.05191421       0.00614370      -0.01979076      -2.66145373      -3.13427153      -2.79469409
I       11.61229024      16.11134175       0.46475507       0.21208198       0.13838324      -0.17425091       0.75619520       0.96695547       1.90513070
I       18.39893844      20.28670912       9.18342988       0.01003453      -0.08156997       0.22199237      -1.96832746      -2.01981758      -0.53074504
I        7.33250456      19.09580281       2.87892695       0.00910280      -0.10418931      -0.10900288       3.43311362       1.90106501       1.26528726
I       12.26554783      19.36441642       3.01622215       0.07846843       0.13244182       0.10576588       0.11269642       1.89581927      -1.60767946
I       12.44902341      18.15268423       9.26445893       0.28317300       0.24592923       0.20806037       1.33847263       1.63489093       0.67198084
Cs      15.21502456      16.16610078      15.27408057      -0.02692350      -0.06245926       0.11015382       1.75543254      -0.11074737       0.81473231
Cs       9.63486279      22.53750236      21.83737504       0.25618662      -0.19976526       0.06641565       1.41979230      -2.15108769      -1.11338370
Cs       9.85176964      16.02939718      21.99723914      -0.08626854       0.30786174       0.03724489       0.85943734       0.37205923       1.93806493
Cs      15.75396785      22.46415021      16.03441668      -0.11069293      -0.20232045      -0.08152828      -1.81764227      -0.36229281       2.32676889
Pb       6.65312478      19.04740446      18.69616218      -0.19517510       0.21024016       0.00651624      -0.88479161       2.55014377       0.40296600
Pb      12.76467098      19.31160227      18.86819777      -0.07102295      -0.22250811      -0.18991465       0.15886106      -1.77936042       1.26181285
Pb       5.84842096      19.20216769      12.20007312       0.30639612      -0.07268559       0.00168272       0.59727207       1.43204469       0.65368527
Pb      12.61483105      19.45596682      12.40572320      -0.08719735      -0.17273610       0.05145456      -0.22863059       3.40676440       2.57018248
I        9.81045406      20.18315120      18.80109816      -0.61787425      -0.04487508      -0.05628338       1.29925186      -0.44515202      -3.01976938
I       15.84971287      18.80254413      18.38549742      -0.07198009      -0.07921326      -0.23912476      -1.73047635      -1.68740196       1.17103929
I       12.13186231      15.94595891      18.34133716       0.25229958       0.34794025       0.13265602       0.31437563       0.97884004      -2.86866513
I       13.37400660      22.14026291      19.69371583       0.15911940       0.42517273      -0.08127296      -0.44911760       1.89104505       1.34701141
I       15.65552559      19.10145290      13.01129243      -0.02523187      -0.11394730      -0.16052655       5.21971091       0.14200646       2.53416994
I        9.61496840      19.98370931      24.97186661       0.01562950       0.12343732      -0.09414523       4.74918968      -1.33939802       0.53815827
I       13.07624498      22.17362728      24.40661099       0.10275571       0.28179024       0.01746189      -2.68852351      -0.53475373      -1.75297536
I       11.87314606      16.16045463      13.23652903       0.04845834      -0.00418540      -0.14573210      -1.16829783       1.17936110       4.58786372
I       18.70597106      19.57794561      21.57298398       0.11192966       0.20925644       0.40440313       2.08408183      -1.06345225      -0.06558406
I        6.09485278      18.64799009      15.47304058       0.15794926       0.11423982       0.09246571       2.64892385       0.24073103       0.58515986
I       12.13376934      19.74870984      15.47863966       0.00974496       0.08384331      -0.03279623      -0.10051690      -0.27997485       0.13809168
I       12.55121700      18.80254128      21.95749049       0.06175870      -0.24814987       0.01035518      -1.87512299       0.79136443      -2.27331247
Cs       9.58469102      22.37082754       3.03644542      -0.03389284      -0.09843467      -0.13432656       0.99025109      -3.06899185       2.98203821
Cs       3.54490032       3.66647971       8.99409734      -0.02043075      -0.03417238       0.05117521       0.49945083      -0.42997921      -0.78098197
Cs       3.90340873      22.69671314       8.67941915      -0.02647096      -0.00462258      -0.09456652      -0.28808371      -0.94325141      -2.10487859
Cs       9.09137470       2.90023156       2.62828456      -0.12485624       0.08579556       0.00932387       1.86194175      -1.30061955      -1.14927328
Pb      -0.44232883       0.22469032       6.34722138       0.34473484       0.04661645      -0.34035805      -3.00544960      -1.35804263       1.24727867
Pb       6.08562440       0.31219752       5.98951236      -0.22363480      -0.07201223      -0.01792632       0.78529220       1.12847974      -1.18286917
Pb      -0.02933312      -0.08783169      -0.27682520      -0.18180061       0.11104268      -0.01570977       0.60233363      -3.69503904      -0.35392700
Pb       5.85089518       0.36957301      -0.43857245      -0.02963987      -0.12261463      -0.04413924       0.06956646      -0.26549876       0.27639215
I        2.73977253       1.08309134       6.25882203       0.02721616      -0.11877199      -0.02160417       2.34877783       1.64987966      -0.28964538
I        9.45200629      25.40644375       5.04215026       0.31710617       0.05494517       0.15722143      -0.24462855      -3.44145568      -0.02685527
I        5.81534583      22.45722233       5.42362080      -0.00355091      -0.04878798      -0.07201535       2.05443414      -1.23274502      -3.51218504
I        6.39475891       3.43161793       6.05019328       0.04244001      -0.02556092       0.17967119       2.32291500      -1.39103167       1.38180064
I        9.31955936      25.24817259      -0.43379744       0.22653800      -0.00447189       0.15030943      -0.60867101       1.31287831      -4.44928058
I        2.93608182       0.18427686      11.12143784       0.13595802       0.33394280       0.28766571      -3.45675524      -3.28487931      -0.46573133
I        6.73673050       3.56173616      11.72290207       0.03277521      -0.20987825       0.13665551      -0.25119196      -2.79067173      -1.27208926
I        5.37751014      22.55330169      -0.10908187       0.16455707       0.13418213       0.05525844       2.26082930      -2.92381877       0.23287044
I       11.84042313       0.74159018       9.48732040       0.07070675       0.03206461      -0.10981771       0.29673714      -1.30138785      -0.14540927
I        0.19376129      24.92665165       2.67502744       0.11381245       0.17969617       0.19340784       0.86433696       1.28168496      -2.04786790
I        5.69352431       0.44816131       2.68946996      -0.03922962       0.11482935       0.06372026       0.53939747      -1.63938229      -0.88763173
I        7.15250453      25.23104059       8.91589672       0.10942928      -0.02685553       0.00334112       1.96541839      -0.80604632       2.81009229
Cs       8.83171297      22.40292293      15.54968396       0.03904590      -0.15850439       0.06506843       0.46206008       3.24979396       1.80895463
Cs       3.67806021       3.59957891      21.70121449      -0.13423378       0.10697901      -0.04595920       2.10206731      -0.51434273       4.81984875
Cs       3.64176100      22.49048522      21.73901152      -0.21981513       0.00892881       0.01473985       1.00467789       3.34658140       1.61333611
Cs       8.84166123       2.64315673      15.98144499       0.14789768      -0.02419203      -0.09241132       0.26557181      -1.39406000      -0.39160508
Pb      -0.31656696       0.17112329      18.59221461       0.15843392      -0.04734581       0.01765234      -1.59698084       1.98223662       1.67102683
Pb       5.74359788       0.19900599      18.76020040       0.11602077      -0.30329246       0.03519215      -0.55385798      -1.25406635      -1.13916171
Pb      -0.09914466       0.05357101      12.31922131       0.23301850      -0.00691549       0.29816614       4.30527564      -2.08869887      -1.07306245
Pb       6.49479190       0.31021579      12.27218036      -0.20306336       0.02069095      -0.15597990       0.38630000       2.47157577       0.45143854
I        2.74957383       0.66630922      19.58829458       0.07026368      -0.01062482      -0.12217018      -0.34136575      -0.34925778      -1.07670703
I        9.53866530      24.98513670      18.75516953       0.02183521       0.03529018      -0.30698609       2.24173754      -0.92842553      -0.86223113
I        5.37829754      22.06029936      18.18420846       0.18455842       0.12437419       0.02491027      -1.12309958       1.65337021       1.78331884
I        6.78815762       3.19993023      18.99809342      -0.07483799      -0.03397143       0.06116712      -1.11120647       0.51628247       2.12445686
I        9.85199263      24.93908462      12.98252609      -0.20826367       0.05310078      -0.00525073       2.52601953      -0.82714285      -1.07016843
I        2.84397689       1.02639125      24.33925813       0.18329615      -0.07912190       0.04143779       0.08592993       2.59799474      -3.25941516
I        6.53650209       3.51355055      24.04852247      -0.12221458      -0.31547456       0.38619266       1.07775600      -0.52667464      -2.97547285
I        5.74899058      22.35751491      12.35327046       0.19014510       0.12374119      -0.10693281      -0.54633445      -0.13613558       1.19808456
I       12.39092323       0.22561441      22.23441559      -0.23833779       0.10577501      -0.00055461      -1.01728155      -4.14251896       0.88332237
I        1.35443951      24.73768272      15.43757224      -0.26274400       0.26419952      -0.00311067      -0.36516009      -0.32968329       4.17118363
I        5.47555557       0.01393219      15.33013516       0.24298777       0.00752489       0.20127991       1.83882583       0.17004456      -2.15127209
I        6.80616618      24.57663970      21.51436485      -0.32923531       0.31714951       0.01209289      -2.00161204      -0.49646367      -0.69253047
Cs      15.40715147       2.75991695       3.30092524       0.06010784       0.11225839      -0.07604915      -3.21686687      -3.69783626       1.14872312
Cs       9.84840617       9.63220102       9.62452263      -0.08483690      -0.03687234      -0.14366196      -1.42175442       1.82674521       0.15526518
Cs       9.39637587       3.57516810       9.05685894      -0.04001104      -0.00572892       0.03245447      -4.83710520      -2.20538867      -1.73215763
Cs      15.79428703       9.27689455       2.86350635      -0.17286816       0.01732876      -0.14549170      -0.44695679       1.10298819      -0.85463987
Pb       5.87475086       6.72077992       6.15766598       0.11177819      -0.10245595       0.09921646       2.26750290       1.04497134       0.84011319
Pb      12.16978020       6.52794007       6.04473984       0.11701986       0.29613371       0.10094756       2.35193238       1.97449670       2.57227299
Pb       6.06143489       6.84478466      -0.25491130       0.17672463      -0.27561825      -0.01211259      -1.44278165       2.62150945       0.85369291
Pb      12.71114137       6.88141795      -0.05455068      -0.12066321      -0.01770477      -0.24331077      -0.56136655       5.38079788       1.82802608
I        9.07637816       6.60781842       6.98357040       0.07912767       0.17795566      -0.11747664      -1.37315415       1.11573425      -4.11695957
I       15.64439760       6.24298146       5.17331054       0.07070328      -0.00640989       0.21348747      -2.03273043      -1.73940260      -2.19827985
I       11.94937523       3.59115383       5.21669767      -0.00402313      -0.42097756      -0.04140685      -2.05964433       0.75016250       1.20615729
I       12.60365217       9.65789665       6.72113706       0.22477953       0.00232711      -0.00054152      -1.48081465      -0.87546119      -1.57124332
I       15.67988114       6.11189301       0.59779854      -0.08732198      -0.11374916       0.02637710      -1.34447502       0.44047896       1.04337898
I        9.55680854       7.16902189      12.28305482      -0.05143567       0.05692712       0.08496190       1.40271779      -2.41770143       1.22880635
I       13.62651247       9.63979552      12.15895880      -0.08897225       0.10377022       0.01645279       1.81385904      -1.33525821      -0.21411233
I       11.88829927       3.25443220       0.13977826       0.05660432       0.31364675       0.05891806       3.61914808       1.77936745      -2.92167346
I       18.80014487       7.30550233       8.83410053      -0.11092493      -0.01369403       0.08175940      -1.28691728       1.44788607       0.92130375
I        6.78871785       6.23055879       3.27437308      -0.00054060       0.05844933      -0.41627438       1.18486362      -1.64636901      -0.47946448
I       12.06119918       7.63512276       2.78049807      -0.06029320       0.04814495       0.21715739      -3.07946770       0.09727430      -1.69493792
I       12.57898970       6.03839036       9.09485177       0.13891166      -0.06257205       0.10956970       2.84813254       3.27968389       0.09924926
Cs      14.84002371       3.14969439      15.38195707       0.09989425       0.10354052      -0.00862982       0.30200535       2.50828270       0.13443720
Cs      10.41768279      10.20215839      22.00021410      -0.10168878      -0.16967367      -0.00888399       0.81786695       2.55225310       1.23251938
Cs       9.38995417       3.30045442      21.88442803       0.25251476       0.01507669      -0.02062819      -1.77791760       0.04448679       0.20832046
Cs      15.92937702      10.36314206      15.70472649      -0.06207881      -0.04213666      -0.08229223       3.89607476       1.77779980       1.13440439
Pb       6.49117791       6.34681473      18.69571491      -0.17456486       0.23980317       0.22717755       5.78743242       1.55100157       3.23477619
Pb      12.64417881       6.41121991      18.86545364       0.01406750       0.13126018       0.01989387      -3.92254908      -0.34693284      -4.72947885
Pb       6.47133529       6.82566416      12.68175316      -0.15049273      -0.12576749      -0.36973175       4.50418396      -2.14839584      -2.61818776
Pb      12.64926929       6.54705512      12.89078438       0.16062651       0.18934015      -0.12172501      -0.79546839       4.95365365       1.47923301
I        9.46698734       7.44674388      18.94272308      -0.01141282      -0.04639491       0.12256071      -0.73894580       2.60155551      -0.62384941
I       15.50432519       5.01896364      18.64338188       0.21268028       0.13850097      -0.21174244       1.35090177       1.06318929       0.33310628
I       11.93977533       3.39889573      18.76171093      -0.23849442      -0.33044701      -0.18131399      -0.10596000       1.08869572       1.12341579
I       13.31677526       9.79683936      19.24850881       0.14081442      -0.09724308       0.13927849      -2.96198798       3.56988634      -0.94069378
I       15.82540158       5.75857814      12.18921635      -0.17992571       0.04463568       0.13184607       0.18629898      -2.62023833      -1.20099733
I        9.40697197       6.38615004      25.00390675       0.00013640       0.18315415      -0.00791692       0.06462570      -0.91011314      -2.52456563
I       13.70227306       9.83040323      24.75209564      -0.16729968      -0.12745325       0.04455604      -1.75404884      -2.22422350      -2.19006328
I       11.45698184       3.61087044      12.95753914       0.08514211      -0.16724134       0.17887287      -0.95088589      -1.27373797      -1.83107515
I       17.53836070       6.22936476      21.82422040       0.10050996       0.16718542       0.07625055       0.30835157       3.71621410      -1.45226494
I        6.58608898       6.04123309      15.64384345       0.06444025      -0.15416940      -0.05864536       3.83836854       0.10617996      -3.44529389
I       12.37887846       7.55595091      15.91529284       0.15999505      -0.08027862      -0.46634417       2.60317248      -2.63079218      -1.29609832
I       12.61584836       5.95407804      21.90262781      -0.02795587       0.06984522       0.39136556       2.21770741       0.01864828       2.37149548
Cs      21.66040955      10.70285513       2.72903546       0.03138373      -0.24634679       0.01242017       0.11973324      -0.92008518       1.05895701
Cs      16.26267235      16.67673562       9.50351999      -0.03812732       0.01664256      -0.11876884       2.68928339       1.58856548       1.53703646
Cs      16.11232278       9.91002665       9.01235602      -0.16821992       0.03821895      -0.02062980       2.91605368       1.13178641       0.50337166
Cs      21.79341245      16.55211968       2.65326680       0.04471885      -0.13955005       0.05395323      -1.63234916       1.11758196      -0.79498876
Pb      12.75125282      13.14614512       6.14789747       0.14780327      -0.50658227       0.17985248      -0.52785584       3.30318025       2.50060268
Pb      19.06636656      13.20138863       6.17217930      -0.01047277       0.04849077      -0.11900212       3.79787343       0.81268958       1.09246136
Pb      12.86816176      13.24820043       0.26400861      -0.10506657      -0.11314553      -0.31682422      -0.69601495       1.72274329      -3.89696469
Pb      19.09480152      13.32109524      -0.17038399       0.03638716       0.09497268      -0.00269806       1.07288676      -4.27729702      -1.17127962
I       15.94005706      13.32232870       6.91262547      -0.24784042       0.06434672       0.15997830       3.38131458       4.06005265      -0.95735330
I       22.14782585      13.23021252       5.40597089       0.25607884      -0.12035804       0.12550720      -0.86522914      -1.47260205       2.82219051
I       18.29722077      10.28438180       5.20215330       0.06759389      -0.26692983       0.08913903       0.31527751       3.04275621      -0.66844910
I       19.56266555      16.38362570       6.57926339      -0.09031391      -0.14837029       0.09458563      -3.37296357       1.31967552       0.89366990
I       22.34675296      13.20345020       0.03282195      -0.05557521      -0.05708317       0.14764598      -0.25394159       1.56382129      -1.78496847
I       15.73397834      13.76688031      11.98178357       0.10446877       0.01618883       0.03127163       1.16538788       2.04409947      -1.33859636
I       19.69555746      16.24808020      11.55118049      -0.34019419       0.07857461       0.29176272       1.35954827       2.09582712       1.41623631
I       18.79148242      10.11363316       0.08283166      -0.15282804      -0.04592728      -0.04671340       0.55069586      -2.32904997       0.52124445
I       25.21441874      13.16329812       9.32499325      -0.18340306       0.01814178      -0.12963996       1.52101978       1.31901235      -0.48596524
I       13.77541955      13.27366943       3.16814625      -0.00824714      -0.24883904       0.00348886      -0.92107269      -0.89995185      -0.26996024
I       18.67185498      13.99168307       3.09352807      -0.08904781       0.05896888      -0.26709579      -1.78542071       0.32798738       1.61023280
I       19.69036054      12.74270574       9.21880444       0.01000129      -0.15397936       0.21638265       2.76559853       2.01933949      -1.61374209
Cs      21.94314671       9.28786903      15.76355336       0.21743106       0.23298876       0.02376089       0.48523678      -2.31885569       1.05033794
Cs      16.21792655      16.83984909      21.59684357      -0.22352121      -0.19661260       0.25889289       0.81867817      -1.57824357       2.43534033
Cs      16.21956330      10.43996390      22.13203673       0.09371259       0.02776835      -0.11885053      -2.49909488      -2.24909066       5.80347549
Cs      21.78344088      15.74069703      15.70849197       0.05278323      -0.17252757       0.13656692      -0.41702327       0.70656480       0.48211913
Pb      13.05322229      12.95738135      18.80738312      -0.18662913      -0.07053208       0.14610829      -1.20050287      -2.61283348       0.40815984
Pb      19.26331353      12.82175921      18.64899363      -0.60000433       0.04559142       0.33603054      -2.00769947      -3.02829242       1.11450910
Pb      12.63427967      12.91155246      12.36968103      -0.05417274      -0.03314505       0.26425505      -2.01137718       1.12159421      -3.81154104
Pb      19.03380837      13.24646664      12.39250398      -0.02110345      -0.10370865      -0.11752409      -1.81049524      -5.32938491      -0.97448290
I       15.97145870      13.48473534      19.57396667       0.13115266      -0.02678468       0.00167473      -1.28262400      -1.20555618      -3.07113541