440
Lattice="25.673295267421732 -0.1374186804420293 0.06974427997538868 -0.10256555337382123 25.63484121136239 0.14590480517180435 0.06715998223064842 0.1563125450794088 25.616614604507543" Properties=species:S:1:pos:R:3:forces:R:3:momenta:R:3 energy=-1533.697509765625 stress="0.0007961266674101353 -0.0002144143800251186 -0.00028307328466326 -0.0002144143800251186 0.0006986304651945829 -0.0002377262426307425 -0.00028307328466326 -0.0002377262426307425 0.0007639285176992416" pbc="T T T"
Cs       9.58845045       9.49867033       2.77547224      -0.03763167      -0.21790145       0.17705614      -0.58871829       1.52681425       2.32251718
Cs       3.58872239      16.00897263       9.58902997       0.12540288      -0.18343739       0.04482601       0.54050649      -0.46459491      -1.32090890
N        3.40523599       8.55699432      10.19112834       0.67369559       1.21065702       0.90166102       0.67662546       0.43515709      -0.32051411
C        3.69949444       9.42715470       9.03091003       1.81298002      -0.91702411       0.74455705      -0.31270794      -0.07063998       0.26229662
H        4.67670586       9.87588532       9.17087062       0.21469494       0.45200756       0.39726881      -0.27020877      -0.00081754       0.04334129
H        2.97312923      10.14879714       8.83301626      -1.52016958       1.21927234       0.10315510      -0.01047153      -0.00609802      -0.14946766
H        3.84245246       8.86281389       8.17014008      -0.05097542      -1.44474851      -1.72560107       0.00560176       0.07162934      -0.20352841
C        3.16831880       9.50429352      11.33185156       0.86545798      -0.27667687       1.33927987       0.02109092      -0.18993242      -0.79321628
H        4.05093815      10.20357061      11.35969755      -0.53030053      -0.71135115       0.25595935       0.10140718      -0.06228956      -0.05158208
H        3.06846462       8.86614542      12.26705253       0.20930902       0.79254029      -0.75947892      -0.14338105      -0.06587522      -0.16461476
H        2.28540097      10.15180836      11.23730947      -0.17632877      -0.40227560      -0.49656328      -0.27300226      -0.07645110      -0.03364622
H        4.23518114       7.87071297      10.45477828      -1.03796234       0.84382334      -0.72792314       0.07121388       0.05825435       0.18654049
H        2.56410995       8.02264197      10.02648619      -0.57511783      -0.75705222      -0.19531450      -0.09809728       0.13464312       0.39615930
Cs       9.58671764      15.43113026       2.87687064      -0.18571984       0.00993340       0.16179101       0.23672656       1.91245766       0.67151744
Pb      -0.02908902      12.87386955       6.97610396      -0.19633221      -0.08640113      -0.57344127      -1.89244887       0.22315441       1.52386689
Pb       6.29745119      12.28724144       6.36680766       0.16680762       0.03842621      -0.06382047       0.71661252       1.03425521      -0.53638766
Pb       0.14585251      12.68666855       0.12790780      -0.16248539       0.12461292       0.07993679       1.65353699      -0.22243922      -0.26213123
Pb       6.55540379      12.30168507      -0.11332912      -0.08863703       0.36987586       0.56525075       2.06569120       4.37926675       4.90374225
I        3.02215445      13.13818823       6.59963062       0.09827140      -0.00092542       0.01970104       0.07483851       0.30752698       0.34702108
I        9.45984806      11.31581744       6.14196931       0.01716883       0.22163193       0.00560113      -0.27956486       2.16784836       4.84238708
I        5.77415920       9.46847510       5.42855613      -0.11906150      -0.39823703      -0.12514771       1.83738507       0.35100204      -2.56612006
I        6.55989273      15.36520202       7.15243671       0.17378297       0.40138423       0.15380436      -1.38534217      -2.49696904       2.64317822
I        9.62419130      12.19502165       0.38140949      -0.09093528       0.04880142      -0.00949942       0.14263803      -2.70651426       2.48192579
I        3.59008505      13.38379559      12.65207520      -0.40241031       0.10412441       0.00817769       1.54726313      -2.26777218       2.11081053
I        7.14905323      16.06706548      12.63552730      -0.24001736       0.01838844       0.03214077      -1.36897244       1.40669623      -2.09781931
I        5.66728107       9.45985462       0.61484710       0.07055778       0.02091876       0.15986394       0.55651410      -2.72553602       2.82714474
I       12.81290196      13.27276117       9.60913229      -0.12020005       0.00688878       0.07425902       1.70913518      -0.93753413       0.70920730
I       -0.22498401      12.52672654       3.33241083       0.10488011      -0.08519056      -0.00137788      -1.92600812       1.38926553      -1.46873620
I        6.24559724      13.40183754       3.42048357       0.03778221      -0.12228907       0.00426566      -0.03748111       0.66961353      -0.54000932
I        7.06763047      11.85588397       9.92482558       0.05051649       0.06098679      -0.25513367       0.10922394      -1.16222497      -2.56919441
Cs       9.57977785       9.42610984      15.98161858       0.05062262      -0.03240020       0.11084228      -0.35928059       1.68089773       1.61150360
Cs       3.60808549      15.69440532      22.36575371       0.00277600       0.14363389       0.09798808      -0.43198853      -0.22861535      -2.25461517
Cs       3.60999442      10.11489603      22.45746142      -0.22061076       0.11607359      -0.11426432       0.41453072       1.69630426      -1.56163827
Cs       9.16531880      15.60213281      16.02143187       0.07772455       0.06050598       0.05632333       3.78480867       0.59215550       2.51398195
Pb       0.08619456      12.63223075      19.63482323       0.08479952       0.33662815      -0.46673591       0.88888324      -2.84549412       0.74812113
Pb       6.68742478      12.70860743      19.25816599      -0.25781329       0.11309215      -0.07715937       0.17350028      -1.73637111       2.59370759
Pb       0.02657050      12.69332194      13.21697346       0.37605606      -0.01985287      -0.07123512       1.05226570      -1.09526357       0.94257604
Pb       6.64594943      12.95602620      12.77665378      -0.12263688      -0.17816326       0.04471187       1.95225584      -1.08174873       1.32382457
I        3.27631441      13.42765327      19.27014320       0.19929200       0.02647595       0.08827641      -1.45075773      -0.10883080      -0.05789551
I        9.71958785      12.24793472      19.16744251      -0.21299178      -0.11318033      -0.11792080      -0.26678129       1.35237195      -0.42535030
I        5.87221864       9.74499721      19.09720553      -0.11347803      -0.20493791      -0.03363001      -1.37479731       1.17380408       1.78564403
I        6.76952921      15.93906356      19.99150119       0.03369870       0.19785971      -0.07927976       0.17769254       0.67157421       0.75616477
I        9.61286902      12.38660793      13.61152205       0.09360568       0.05711540      -0.02326894       0.18020667      -1.30151452      -2.25923190
I        3.14599910      13.65313670      26.03545184       0.37582784      -0.18217801      -0.22558349       0.79080061      -0.03413068      -0.87555708
I        7.18609565      16.00227758      25.54606986      -0.16030275      -0.05220125       0.05317111      -2.15155613      -2.94641193       0.84304663
I        6.54964286       9.66770089      13.51487300      -0.13221332       0.01757273       0.05895987      -1.69811970       3.10011613       2.34670045
I       11.45268063      13.14853854      22.66314861      -0.16791821       0.16562600      -0.64686459       2.63498105       3.79751237      -1.55148166
I        0.88073921      12.31622876      16.44845134      -0.13484337       0.20278293      -0.44596105       0.01331850       2.77409955       2.10890325
I        6.09498134      13.24833751      16.17569136       0.01982362       0.03172521      -0.02379306      -2.84107657      -0.25915467       1.24535259
I        6.73398856      12.35261386      22.54628157      -0.01303791      -0.02282421      -0.18616315      -3.00473281      -1.71020399      -1.14193611
Cs      15.55575124      15.47574641       3.09573290       0.17528071       0.05672717       0.02938514      -4.35687761       0.00221591       2.12336283
Cs       9.39014089      22.25300509       9.19150696      -0.02110184      -0.02103941       0.14273681      -0.52376282      -0.12305194       2.20620695
Cs       9.73481454      15.95815015      10.21520563       0.20324850      -0.05148723      -0.34659575       1.50870362       2.52094273       1.41058711
N       16.39113293      22.48534834       3.96216086       1.18459040      -2.02316503      -0.71961083      -0.67876293      -0.50858565       0.34661386
C       15.36771854      21.95912912       2.98031770       0.21812385       2.35417210      -1.18520369      -0.35055161      -0.71264343       0.08822162
H       14.32719616      22.31193256       3.07180324       0.26440174       0.19222981       0.99330864      -0.04258784      -0.07946288      -0.05006207
H       15.40704009      20.93090109       3.08151219      -0.00756986      -2.32043744      -0.11207269      -0.21975242      -0.04846388       0.07707988
H       15.61190652      22.30688137       1.95559177       0.43222030      -0.29249125       0.40153964      -0.04446690      -0.00729742      -0.06512984
C       16.24073117      23.87967025       4.29482926      -0.04972550       1.19704069       1.12440733      -0.62554124      -0.48403752      -0.76393633
H       16.21910214      24.47058974       3.37812934       0.27997190       0.05413169      -0.13390582       0.01359452      -0.15561160       0.32242877
H       17.10280534      24.08936859       4.95629234      -0.28353362       0.50990707      -0.35998783      -0.09519995       0.10323520       0.12468115
H       15.30774794      24.10455377       4.85373320       0.20176715      -0.43579073      -0.22231291       0.20240997       0.21316269       0.03180749
H       17.44493175      22.33696918       3.54114008      -2.46590472       0.06422727       0.77068387       0.29215097      -0.20799905      -0.01658804
H       16.32714995      21.84405490       4.82678720       0.28194705       0.64106629      -0.79736311      -0.08543341       0.07969992       0.12474845
Pb       6.53784400      18.45033346       6.52116485      -0.00442105       0.05155552      -0.02874353      -1.03695476      -2.15877127       2.06802300
Pb      12.94074531      18.88578808       6.31037225      -0.03265702       0.04117549      -0.08949840      -2.30836373      -0.89097520       3.17529652
Pb       6.90086798      19.26784799       0.16658817      -0.50587373      -0.09571237       0.22084755       5.50579039      -0.77077044       2.65464422
Pb      13.43617560      18.89240609      -0.02258148      -0.11196993       0.01750255       0.04379660      -3.57702730      -0.75051409      -1.08311104
I        9.68201396      18.80159155       6.91175496       0.00212809       0.02752789      -0.02107948      -1.12088862      -0.38132414      -2.50960286
I       16.26029064      19.22595279       5.60687864      -0.00024486      -0.06416726       0.14967818      -0.17487426      -2.42783168      -0.27629625
I       12.44451062      15.76316065       5.65371297       0.02160561       0.09160450      -0.00402367       1.62710417       0.65847313       1.69547808
I       12.37517563      22.31178029       6.75536893      -0.05050873      -0.00016645      -0.02647029       2.07365715      -0.06050988       1.10588947
I       16.86432473      17.99188055       0.14975364      -0.59938525       0.02963313       0.15063829      -1.11855342       0.37084622      -0.17441084
I        9.60463758      19.25783603      12.18471964      -0.19803574       0.19566288       0.01379363      -2.21429572      -2.75586487       1.10990346
I       12.29474869      22.25090917      12.61849674      -0.02804485       0.19552358       0.02844502      -0.79840268       2.94062242      -0.74077773
I       12.68117352      15.85035840       1.01705064      -0.00303455       0.03606382      -0.38167218      -3.40029799       0.71591740       1.12364719
I       19.02986233      19.24677385       9.93301273       0.00690069       0.10458354      -0.07948453       3.43341813      -0.32484894      -1.80740209
I        6.75909462      18.37211485       3.44689841       0.02816954      -0.05179705       0.04106313       0.19452171       2.05062088       0.28016030
I       12.49367755      19.44100257       3.06652575       0.18283194      -0.20314317       0.17049507       0.12741033      -1.44346533       2.18890457
I       12.85522340      18.48802472       9.70851975       0.06198054       0.01513135      -0.44728738       0.24180805       3.56542622       2.79271099
N       16.63536677      15.96440100      16.40461459      -1.46364017       2.02451669      -0.96802991       0.05170826      -0.06779772       0.30536479
C       16.57732412      15.95332842      14.91095619      -0.70006033      -0.00953638      -0.72487792       1.36203407      -1.27647253      -0.96074333
H       16.41614518      14.91626633      14.66777339      -0.50410005      -0.58667544      -0.41716275       0.16617789       0.17704036      -0.07514105
H       17.51804718      16.18640642      14.41001261       0.25236562       0.46478768       0.34509560       0.29527670      -0.11883869      -0.19855966
H       15.73651963      16.58306847      14.50056108       0.78744618      -0.41086299       0.60523316       0.38092588       0.13228351      -0.10608842
C       15.20931685      15.96078128      16.95577465       0.63718639      -1.47857330       2.61604057      -0.33397087       0.00354295      -0.21878020
H       14.62472617      16.79511562      16.55000409       0.15325262      -0.06438795      -0.22028141       0.00346109       0.05355402      -0.08156475
H       15.28080574      16.10612462      18.16369091      -0.22310257      -0.49907830      -2.70749040       0.04722672      -0.20222686      -0.07579200
H       14.80345928      14.94765717      16.66256107      -0.02877928       1.02465701       0.44354425       0.38338407       0.06012128      -0.09015022
H       16.96281035      16.90522270      16.68796795       0.77766411      -0.47460586       0.31593149       0.18194227      -0.03714735      -0.00155019
H       17.23623592      15.16693705      16.63629808       0.28923963      -0.00192672       0.83034263       0.02957676      -0.14349180       0.22678985
Cs      10.16487746      22.33743718      22.85469369      -0.14091366      -0.00968954      -0.10433450       0.71688103      -2.32442838       5.03806633
Cs       9.34314275      16.51384634      22.75058955       0.21601463      -0.00244606      -0.17952419       0.95939621      -1.32252739       4.31921544
Cs      16.04504319      22.92940144      16.32649699      -0.01813473      -0.10889060      -0.00401269       0.04366404      -2.88831502      -0.10843041
Pb       6.64848888      19.05026693      19.14541266       0.15678314       0.09437828      -0.03119604       3.16243164       3.31498671       0.96247680
Pb      12.57398871      19.58808469      19.14587951      -0.04749158      -0.19923142       0.32784289      -3.42458268      -1.49771348       0.49659718
Pb       6.34111522      19.39733339      12.53370281       0.16534007      -0.30915795       0.30526996       2.09388386       0.47350407      -1.70028833
Pb      12.75642489      19.09417602      12.61296475       0.12669702       0.15431231       0.46471115       0.07693924       3.05130127      -1.33870797
I        9.62531119      20.67905161      19.26774707       0.08321903      -0.21731958       0.10244575       2.84358731      -1.59589555       0.89387146
I       16.38218345      18.92675526      19.00563280      -0.06880484       0.09983526       0.14261354       0.43474174      -0.56236146      -0.41163010
I       11.50183697      16.03154806      19.08245903       0.09356783       0.08426231       0.03985877       0.90079027      -1.95249856      -1.85807093
I       13.37263177      22.58370896      19.55674784       0.09148474      -0.20988100       0.11579476      -0.39195636      -1.74228628       0.72460051
I       15.95083146      19.67587008      13.80885448      -0.01920638      -0.11101901      -0.04195183      -0.93117158       1.94636199       3.48728501
I        9.87160043      19.57292773      26.06653259       0.43734377       0.00397355      -0.12347878       1.51782547       0.31560844       3.53672295
I       13.08970944      22.23968242      25.03142752       0.24572891       0.11739467       0.08005867      -0.01385167       0.80169674      -1.49065808
I       11.93680790      16.08789171      13.40147965       0.10489029      -0.16659889       0.04539742      -0.96238803       1.60263477       2.21189324
I       19.39427608      20.05865671      22.73005873      -0.04344883       0.15022337      -0.10552649      -0.33491549      -0.43045898      -0.25394508
I        6.76090105      18.80866955      15.97066876       0.06139860      -0.03809255       0.25092486      -2.02450738      -0.51063831      -0.12529979
I       12.42861573      19.71353093      16.23613639      -0.02863126       0.00169603      -0.39299077       1.24627423       0.87734963      -2.57020379
I       12.43737607      18.79626390      22.47313289       0.01582869       0.15807495       0.19388763      -1.88177362       1.28586198      -1.18067179
Cs       9.95871804      21.93617998       3.75174372      -0.25298075       0.12430063      -0.08160385       2.91047469      -2.27243601      -0.23806722
Cs       4.07148985       2.95607772      10.27307503      -0.12183660      -0.05597172      -0.16195404      -1.71499281       1.75902755       1.32370701
Cs       3.27397515      22.98054547       9.39669734       0.07242576       0.02293216       0.17870496      -3.24335938      -0.31875071      -1.25196596
Cs       9.79345658       2.61239329       3.11850331      -0.06937797       0.12699148       0.18797671      -2.87846053       0.83919343      -0.35154877
Pb       0.10595406      -0.13166208       6.36028329      -0.05277837       0.06549066       0.17545480       2.90145231       2.11181911       2.92475844
Pb       6.47891145      -0.12809111       6.28906489       0.12822081      -0.14156699      -0.01253003      -6.29644022       0.76143993      -0.64748697
Pb       0.04702944       0.09222025       0.09710370       0.27975975      -0.04572632      -0.12423023       2.02883474       1.93943903      -3.30277888
Pb       6.72220257      -0.38734850      -0.10302464      -0.21740920       0.18076644      -0.04455362       0.68790276       1.88379375       2.27507444
I        3.36657486       0.12342803       6.47616496      -0.14101077       0.14217508       0.09268143       3.22754963      -0.04247055      -2.46586056
I        9.41607177      26.08228294       6.78866783       0.44648521      -0.22002589      -0.03346960      -0.33569997      -4.24626709       0.93313696
I        6.61769470      22.33763582       6.38885928       0.08259983      -0.06140722      -0.04067978       2.43459178       0.31159220      -0.85136404
I        6.94118710       2.93094986       7.31634853      -0.10074022       0.14117276       0.17788308      -2.54216509      -2.62115644      -0.10604175
I        9.72159397      25.42692320       0.41994351       0.05605443      -0.06170257      -0.16930585       1.46700166      -3.71658076      -1.89511178
I        3.03641595      -0.28623119      12.68541637       0.60838718       0.09310116      -0.04436880      -1.47002065      -1.83231314       1.24618887
I        6.44252957       3.36288116      13.19879906       0.05157014      -0.45545932      -0.02682196       0.06683071      -1.21211272      -0.92722460
I        6.71352119      22.47223215       1.18119674       0.01600400      -0.33342623       0.07882916       2.77341017       1.31895426       1.58130681
I       12.10122842       0.16485121       9.74108736       0.16934399      -0.09867556      -0.01351947       3.07677864      -6.25727684      -0.51129058
I        0.20454011      26.48765761       3.42270908      -0.17495442      -0.10026332       0.04260574       0.04998110      -2.15812727       1.64630082
I        6.65283791       0.65052888       3.29571104      -0.14490233      -0.10303229      -0.08812786       1.18370291       1.80626712       0.49027556
I        6.65334537      25.21296630      10.10658038      -0.03113448      -0.03858003      -0.07528706       3.31577256      -1.24031025      -0.24871872
Cs       9.70905799      22.45967164      15.90708256      -0.00827023       0.06731485      -0.03279195      -0.47749279      -2.26347021      -0.97804652
Cs       3.64608406       3.90975458      23.26077218      -0.16183003      -0.11710415      -0.13704592       0.03963535      -0.55624827      -2.23229622
Cs       3.17711659      22.40523977      21.84639810       0.01879504      -0.10560359       0.12164091      -0.49571833       0.29053470      -1.17686443
Cs       9.12576296       3.25469233      16.06600152       0.14318036      -0.06896567       0.08139087      -0.36166993      -0.12992549      -2.33538581
Pb       0.71709815      -0.03264514      19.37830825      -0.51637971       0.18607619      -0.04570379       2.69081452      -1.85521291      -3.28496749
Pb       6.55641893      -0.27476276      19.64837493       0.22174555       0.15038524      -0.00945703      -1.60444671      -0.96096358       0.50297703
Pb      -0.04963112       0.15192866      13.07777099       0.32372455       0.13881364      -0.12036163       0.05120510       0.39122353      -0.20236842
Pb       6.50527861      -0.23069613      13.10498136       0.03112550       0.04240933       0.02980827       2.54919613       2.18793499      -0.59141721
I        3.53011725       0.37618770      20.41782363       0.17619470       0.04545663       0.13081654       0.55915574      -0.64339258       0.40577111
I        9.78613281      25.25756990      19.53950020      -0.28568448      -0.12522348      -0.02338670       0.51018897       3.40473652      -1.61922558
I        6.05706641      22.56877416      18.93109152      -0.17814641      -0.36119405      -0.07181407      -1.38771117       0.00695194       0.99371134
I        7.46140143       3.63039424      20.34330074      -0.10575694      -0.27607721      -0.04254251      -0.13824728       1.64798218      -1.45940700
I        9.72400238      25.66222273      13.69171035      -0.23340186       0.07794981      -0.09942500      -2.70738818      -1.44082323       2.56065038
I        3.58444646       0.46139392      25.07259917      -0.11090526       0.00816099       0.10159427      -1.42867750      -1.18423071      -0.93136270
I        6.87558806       3.20811631      25.10147270       0.09221966       0.03097924      -0.09513220       1.90746683      -0.94456169      -0.11855442
I        6.11154960      22.25712439      13.61449719       0.02375607       0.21119347       0.00365772      -2.83065565       0.21027204      -0.03244448
I       12.60699392       0.49601466      22.58239831       0.19431238      -0.13031048       0.06772780       3.66536428       3.24214581       1.24264639
I       -0.00787498      24.91900380      16.10768598      -0.04269537       0.05556824       0.12641099       2.35126964      -1.43858890       1.57418470
I        6.45510642       0.06473447      16.25643764       0.08658928       0.09002141       0.14834322      -0.51689516       5.04389297       0.61486107
I        6.66498238      24.03088117      22.77699592       0.05211314       0.13970249      -0.03319604       0.61256883      -1.09399013      -3.87754193
N       16.48700763       2.39142280       3.90607202       2.48830561       0.44286464       0.00466606      -0.28694401       0.61582716       0.64971953
C       15.29527480       2.89096969       3.23678586      -1.39164538      -1.08407038      -0.64658448      -0.05489155      -0.40429019       0.51876457
H       14.48521613       2.08769631       3.38027461       0.87287402       1.01647252      -0.81231951      -0.06005741      -0.15524099      -0.08767439
H       15.54700474       3.20964800       2.17052213      -0.43991822      -0.66275787       1.11855434       0.06441333       0.13175136       0.19839399
H       14.94491502       3.74583072       3.80285587      -0.11588868       0.54143934       0.12411355      -0.14674704      -0.07192680      -0.04987220
C       17.58986892       3.51666700       3.81950011      -0.77615790      -1.14737084      -1.41149045      -0.54004420      -0.18925476       0.12609561
H       17.87678087       3.54389776       2.74806521      -0.15723481      -0.09563535       0.19156172      -0.27460792      -0.13065268      -0.06576780
H       18.50110281       3.23067328       4.33788115      -0.01591413       0.04347448       0.65994258       0.08529117      -0.09956377      -0.31694480
H       17.15372765       4.51081885       4.00713637      -0.02645339      -0.41194599       0.62254453      -0.21888865       0.01828453       0.14837086
H       16.89304993       1.50891554       3.48099127      -0.34228998       0.89103420       0.01953536      -0.05000424      -0.06049291       0.15449765
H       16.28414948       2.08095812       4.89153369      -0.01957135       0.39850426       0.04820931      -0.09829641      -0.11787047      -0.23040540
Cs       9.75600629       8.72438302       9.52249708      -0.09514042       0.21433817      -0.11504961       0.23021651      -2.01075720       0.32620540
Cs       9.94025501       3.01388808      10.37090856      -0.19741418       0.00131830       0.01652382      -2.67623911       0.18813085       0.45481413
Cs      15.89361757       9.59282764       3.04521881       0.26127906      -0.05310960      -0.04312279       0.28206549      -0.21027665       2.38534883
Pb       6.42781020       5.69651393       6.34863599      -0.08414643       0.46333875       0.12453188      -1.97648177       0.20415397      -4.58266011
Pb      12.87983027       6.53569382       6.12435991      -0.25537286      -0.09381609       0.02767354       0.33472142      -0.35834164      -5.28449469
Pb       6.50019952       6.10014880       0.14929064       0.13305717       0.00618281       0.37319422       2.22296433      -6.37094138      -0.71714617
Pb      13.04339453       6.01007081       0.05390853      -0.04377479       0.09194674      -0.30367635      -0.61049353      -1.59224976      -0.86537382
I        9.59227698       6.79655577       5.97276406      -0.23771905       0.01065366      -0.02325853      -2.75381126      -1.75258816      -4.34860591
I       15.84561436       6.17715677       6.66914293       0.32610018      -0.05956095       0.08669556       0.88859148       0.35986171       1.57983283
I       12.55041948       3.35947126       6.07021342      -0.00065237      -0.14773859      -0.04988059      -1.33567423       1.30126737      -0.04342496
I       13.31141102       9.72583555       7.20753697      -0.15821116      -0.23937350      -0.10689616      -0.43980484      -1.78964617       2.12743349
I       16.36518800       6.46495949       0.26070754      -0.19675192      -0.15119633      -0.04004991      -3.25389557      -0.46735494      -1.25442691
I        9.38170212       6.49669249      12.73082816       0.40591657      -0.07111161      -0.11206333      -2.42067387       0.59439945       2.91923807
I       12.46323356       9.78877016      12.05056444       0.03868471      -0.19683547       0.03238702      -2.46937381      -0.62355559       0.75082983
I       12.45257479       3.05976461       0.69371798       0.16342279      -0.10755768      -0.22444140       1.98430049      -0.45739474       2.41408768
I       19.11082120       6.32800945       9.64310547      -0.19404587       0.05719245      -0.30849574       1.56796038      -1.35461060       1.10886530
I        6.47190305       5.02916935       3.43535546       0.20601703       0.03926947      -0.10796194      -1.41345738       3.28976989      -0.20615581
I       13.06898804       7.17031051       2.79382819      -0.14638826       0.10201398       0.55364486      -1.44238874       0.65737312      -1.67806340
I       12.12182229       5.78538069       9.13584640       0.11053062       0.06677352       0.35978458      -0.22370378       3.63901006       0.93792862
N       16.82462803       3.40777824      16.16813776      -1.89747998       0.76580881      -0.64352231       0.04155381      -0.50751539      -0.33668572
C       15.83291003       2.44991444      16.88894186      -0.21109551       1.82900591       0.00333482       0.26623095       0.00862042      -0.94293567
H       16.20862989       1.44306248      16.95558693       0.63643916      -0.42574353      -0.00737671       0.15428099       0.15130131      -0.05450736
H       14.88877705       2.40601205      16.32268712       0.22289011       0.34952866       0.07086410      -0.22203478       0.03501444       0.05323098
H       15.68532900       2.90172870      17.88807017      -0.12097473      -0.35078748      -0.26724658       0.06531035       0.08849596       0.12142041
C       16.36940022       3.71878746      14.68430073       0.36600424      -0.41496922       1.30723124       0.41122918       0.16072927      -0.44343240
H       16.22972436       2.70081976      14.29709747       0.00318275       0.26339639      -0.32403945       0.03872252      -0.06029383      -0.28061677
H       17.20916104       4.27449778      14.14996757      -1.24985963      -0.39592771       0.70174014       0.23001237      -0.05064953      -0.16691988
H       15.34583121       4.19559273      14.79101856       1.29737288      -0.10236793      -0.35830867       0.18613994      -0.04753033       0.17756620