800
Lattice="26.522672571826224 -0.09366331664126117 -0.07244535864934028 -0.03304437474907803 26.706092279548077 -0.1845389854190823 0.030768394645780333 -0.1554599099579425 26.532234765872452" Properties=species:S:1:pos:R:3:forces:R:3:momenta:R:3 energy=-3426.19921875 stress="0.00043168792035430664 -0.00010809638479258866 0.00021409483451861888 -0.00010809638479258866 0.0014138254337012768 -0.0005125568131916225 0.00021409483451861888 -0.0005125568131916225 0.0019860616885125637" pbc="T T T"
N       10.22655477      10.42838099       4.28557595       1.79607773       1.37685075       2.12052015      -0.86144952      -0.52173228       0.83391405
C       11.39442929      10.36479626       3.37495105      -1.40960376       0.20898057      -0.68727351       0.47364931       0.13342096       0.16909750
H       12.09725868      11.09895629       3.63390713       1.13905580       1.15758349       0.50097476       0.03310206      -0.01961435       0.01324429
H       11.06514823      10.57528048       2.34121485      -0.02214634      -0.24238371       0.31805330       0.11079786       0.19088768       0.10047566
H       11.82934443       9.41416709       3.49643004       0.66911060      -1.46189379      -0.24907349      -0.08950744      -0.35980470      -0.03574042
C        9.00869583      10.18851809       3.58813497      -0.82473350      -1.32017586      -1.44798121      -0.56478235      -0.05234297       0.03231769
H        8.14929243      10.10617611       4.20698725      -0.71359003       0.10930454       1.17948335       0.35534009       0.10743373      -0.04490278
H        9.11474664       9.13510087       3.17078483      -0.24672800       1.27783498      -0.39689648      -0.00310621       0.11280197       0.10046329
H        8.78069860      11.03225060       2.89871970       0.40914420      -0.73123381      -0.18312090      -0.06693104       0.33275428      -0.07878219
H       10.28352853      11.39554322       4.79308709      -0.64917693      -0.35720903      -0.65319227       0.16741926       0.04345784       0.12105359
H       10.38231127       9.82055103       5.14906787      -0.20063891      -0.14172876      -0.83298380      -0.08301441      -0.19331836      -0.10632125
N        3.90581286      17.93347968       9.60190488       0.12853927      -1.22244930       1.36017566      -1.14206778      -0.53211878      -0.39864282
C        2.51845568      17.55145318       9.87149756      -1.41295006       1.13397720       2.38740161       0.41407198       0.18835212      -0.07266398
H        1.92806023      18.45278735      10.22096013       0.54028757      -0.54487275      -0.76040091      -0.07749906      -0.09627899       0.07231189
H        2.36121037      16.87937911      10.73916392       0.74556634      -0.15430057      -0.37318756       0.33282957      -0.12241641      -0.00699526
H        2.06915453      17.13507871       9.00761936      -0.40841181      -0.54751914      -1.08703672      -0.09389671       0.05692534       0.37124821
C        4.83531467      16.78048983       9.60743271       1.72424519       0.37981362      -1.52762508       0.03139209       1.27396156      -0.90818454
H        4.68525400      16.20505328      10.50110931      -0.04139511      -0.38961384       0.53827516       0.20391231      -0.01932430       0.10492800
H        5.92975266      17.13633652       9.49270540      -1.57792747      -0.32488841       0.43153106       0.08083097       0.11073388       0.15641835
H        4.62842708      16.21381290       8.67839251      -0.08803178      -0.14902042       0.46260813      -0.13656341       0.00188145      -0.07325801
H        4.22255572      18.63734225      10.28222235      -0.02059096       0.41978375       0.25304598       0.05071599       0.15184336       0.01130993
H        3.87092413      18.32328301       8.68253405       0.35729978       1.04566352      -1.53385927      -0.02222822      -0.30144986      -0.04348558
Cs       3.39128768      10.07428639       9.68776917       0.00992634      -0.02021915      -0.07267840       1.82833561      -1.57695197       0.99748007
N       10.65451555      16.20109128       2.93621817       0.96947831       1.25751637       0.51307455      -0.43301267      -0.01219419       0.35709462
C       10.34893249      14.91259368       2.28924991       0.79756799       0.34383057      -0.66954367      -0.18026325      -0.25954383       0.00131044
H        9.78683384      14.29275196       2.95810107      -0.04209772      -0.62834796       0.81249259      -0.07274621       0.13914185       0.08328445
H       11.33668681      14.49574385       1.96618592      -0.93509866      -0.08050766       0.00652229      -0.02162762      -0.10146159       0.16845859
H        9.64453189      15.15188471       1.48685774       0.25266152      -0.11972592      -0.52303285       0.09631670      -0.07897376       0.16967401
C        9.44406167      16.88782838       3.44158289       1.30425504       3.11566482      -1.51705104      -1.47708625      -0.11840542       0.08622911
H        8.88155394      17.28676323       2.59102758      -0.18102932      -0.37067118      -0.27616154       0.01408793       0.16319455       0.05625482
H        9.70430177      17.84015443       3.98326687       0.07296384      -1.04910206       0.01580955       0.11614751       0.25366743       0.31579936
H        8.87492180      16.22455826       3.97227395      -1.50447096      -1.70986712       1.68414894      -0.19793228      -0.09535123      -0.16374197
H       11.14027043      16.83093691       2.22098067      -0.32934565      -0.53425542       0.43183114       0.16592141      -0.03071091       0.20753494
H       11.33601676      16.11128416       3.73430349      -0.29527798      -0.20262487      -0.46577944       0.10546837      -0.19190259      -0.17342490
Pb      -0.05820388      13.04687574       6.38339924      -0.02115115      -0.07546665      -0.14610694       1.77096021       0.76899194      -3.58239682
Pb       6.48071609      13.50173415       6.05584932       0.02357522       0.07959457       0.22396860       0.36416474       2.89375932      -3.43292390
Pb      -0.01162083      13.63054826      -0.23882245      -0.03974393      -0.06644056       0.13627299      -1.37401533      -0.10458068      -4.82325554
Pb       6.82719433      13.02090969      -0.30858007       0.06101925      -0.13595125      -0.13866171      -0.71378364       4.97218094      -1.29627592
I        3.41161396      13.34915066       6.80244093      -0.06727853       0.11244168       0.00525541       1.21581893      -0.27171443       2.14723396
I        9.92136563      13.26681501       6.08371624       0.21107372       0.08595345       0.20027894       4.32922367      -1.50510466      -2.75096778
I        6.41505655      10.39082453       6.45306380      -0.08465215      -0.14217576       0.04959618      -0.78230105       2.24720977       1.88789944
I        6.80431135      16.87589018       6.42162854      -0.07212143       0.04305308      -0.00677036       1.07237676      -1.54289729      -0.85515461
I        9.77228634      12.08162327      -0.17939744      -0.26008187       0.18917416      -0.12429751       1.28286581       1.11580682      -3.46183113
I        3.10798521      13.22854764      12.20796660       0.06922651      -0.10014339       0.15507729      -0.79075842       1.59558665       2.10381701
I        6.53962650      16.20081415      13.14181154      -0.01011300      -0.02855821       0.04129758       0.12388042       0.02688695      -0.96864792
I        6.21349212       9.95090136      -0.25971364      -0.05248305       0.16385353       0.10198351      -4.15353559      -0.10031728       0.75080314
I       13.20803074      13.51993509       9.41513158      -0.10068221      -0.03728504       0.29560014       1.78392166      -3.44243927       2.18218451
I        0.49457903      12.99709347       3.27379380      -0.18874649       0.18727341      -0.22708204      -0.66803553      -0.20347329      -0.83976752
I        6.07609503      13.80827360       3.07330173       0.07142717       0.03389825      -0.20635102      -3.94351375      -3.04550106       1.17859417
I        6.55101746      12.68517748       9.99814391       0.12522288      -0.01255204      -0.06111996      -0.80224768      -0.32170012      -0.43444553
N       10.15514297       9.89068633      17.38084548       0.05899596      -0.99315711       1.61554347       0.15876244       0.71772754      -0.08696185
C       10.90958550       9.83594194      16.14123892      -0.45645276       0.00290591      -0.24995994      -0.90167488      -1.42804578       0.37622393
H       10.68709298       8.89945120      15.66075852       0.17651911      -0.73730432      -0.21627463       0.05664841      -0.12954846       0.00143071
H       11.93727215      10.00218475      16.33816291       1.20896543      -0.06233510       0.18586657       0.11802249       0.08846166       0.00726713
H       10.55597511      10.59774697      15.48144931      -0.36905274       0.87636687      -0.42792907       0.14529942      -0.27301473       0.07628084
C        8.71999394       9.92221203      17.19274213      -1.78959469      -0.86699057       1.93326781       0.29449059       0.04250418       0.31936898
H        8.36053030       9.21517102      16.47953204       0.14451049      -1.01602465      -0.66270021      -0.04208345       0.14542578      -0.14577158
H        8.30477323      10.85467647      16.87149476       0.19677556       1.13324706      -0.14128908       0.02096098      -0.06854189      -0.06756525
H        8.25841797       9.64744018      18.19853918       0.26986336       0.43143140      -1.15493390       0.11063773      -0.07992211       0.02566774
H       10.33513026      10.70223222      18.01425632       0.55091276       0.28289426      -0.23376090      -0.12073397      -0.06449017       0.04226543
H       10.37863826       9.02598472      18.01008663      -0.14951542       0.85186196      -0.73830341      -0.35162754      -0.16291562      -0.14525457
N        2.91360117      16.01552558      22.44053435      -0.58489176      -0.84027944      -0.20261125       0.18100587       0.51256480       0.50531302
C        3.98832665      15.83674365      23.48018655       0.36508798       1.88224677      -1.32975914      -0.18663226      -0.54511470      -0.69410201
H        3.95241365      14.80131295      23.70847958       0.29567945      -1.01664579       0.67763234       0.15070641      -0.18777151      -0.01397367
H        3.86843754      16.54505734      24.31479165      -0.25023919      -0.37211692      -0.04203847       0.03297675      -0.05707953      -0.05280628
H        4.91322002      16.10888052      22.91383945      -0.22660871      -0.31633245       0.66405628       0.04174984       0.23656578       0.01954746
C        2.45950492      17.38494435      22.06751731       0.13741151      -0.21856011       1.40208868       0.11082344       0.96298758       0.52916720
H        1.75404315      17.72455245      22.86451045       0.45372568      -0.07797472      -0.52001360       0.11560990       0.01408545      -0.08414433
H        1.93727788      17.27370174      21.11758008       0.15352058       0.48720370      -0.21037669       0.10144898      -0.03831718      -0.27270386
H        3.38870891      17.96206972      22.10749349      -0.25901281       0.47534576      -0.47156452      -0.25206677      -0.02258870      -0.09276305
H        2.09692959      15.39940940      22.58978898      -0.18433600       0.11160018       0.64292234       0.15193719      -0.05470179       0.00246203
H        3.29452331      15.54663902      21.61298733       0.30427967      -0.08769886      -0.67179496       0.08702000      -0.34006944      -0.06883858
Cs       3.38561671      10.14375254      23.24673197       0.13319249      -0.01134072      -0.14627175      -1.30824260      -1.07666045      -2.21622518
N       10.42865707      16.81254901      16.32521127       0.21297349      -0.02927869      -0.15616101      -0.66226859      -1.02511420       0.60720071
C       10.45681500      15.30550161      16.32144961       1.76070827       0.63857412       0.66562484       0.24233776       0.08613883      -0.18709289
H       10.97804470      15.11772792      17.32111326      -1.04675725      -0.64241230      -1.10177992      -0.18236573      -0.08774555      -0.06566391
H       11.14228857      14.98138285      15.49314908      -0.47050355       0.17265215       0.60478586       0.18311209       0.01962145      -0.15657444
H        9.47740015      14.90657373      16.14349210      -0.68377904      -0.29944742       0.34232034       0.02180829      -0.09609836       0.06975560
C        9.61971690      17.48368599      17.40365980      -0.83963033       0.56495814      -1.69142792      -0.05899856      -0.13564912      -0.21908243
H        8.52625710      17.37826251      17.17135859       0.69633196       0.58074846      -0.44443071      -0.29838593      -0.21258908       0.31222714
H        9.97635847      18.52235502      17.60462011      -0.35881300      -0.63246697      -0.32444635       0.09197675       0.04204723      -0.07227922
H        9.66334243      16.90601531      18.26533918       0.83554872      -1.21904601       1.95472736       0.01485228       0.22794859      -0.01779492
H       10.16028026      17.21097811      15.36436213       0.21535609      -0.20857251       0.62227797       0.16138284       0.02995793       0.14374737
H       11.44055279      17.00680283      16.49260663      -0.26513111       0.84512242      -0.26777478      -0.06210609      -0.12991763      -0.13769003
Pb      -0.45572704      13.74330148      19.94955120       0.02676456      -0.14040611      -0.14371720       1.03293716       3.19529564       0.70821712
Pb       6.50327694      13.46565911      19.65264871      -0.02590989       0.08218768       0.04655814      -1.11294892       1.71544585       4.57282163
Pb      -0.17890888      13.03343689      12.90354173       0.05444066       0.00144909       0.09400864       0.11228120       2.47925683       0.64004425
Pb       6.21071124      12.81860196      13.02529225      -0.09966305       0.48831174      -0.03708185       0.89173894      -0.20558553       3.75996328
I        3.38483186      13.05446586      20.21380613      -0.13255337       0.13537850       0.00555542       1.60023316       2.22626295       3.04988831
I        9.63652945      12.71989079      19.46130015       0.09811878       0.01850569       0.19021806      -0.35143869       0.58025679       0.28141919
I        5.77097516       9.54410458      20.14521647       0.06238278      -0.12638496      -0.12602061       2.40023765       1.10323283       0.78863959
I        6.71490997      16.80081564      19.87094273      -0.07624095      -0.26704196       0.10516936      -2.15059377      -3.44750671      -0.11387274
I       10.32475207      12.51838418      13.36615768       0.00516142       0.13335908      -0.29568708      -0.34203334       0.22469690       0.73076126
I        2.90645234      14.13814260      26.58295744       0.24687069      -0.24468200       0.08864622       1.17777687      -2.56801178       2.99779982
I        6.89843216      16.52045914      26.31326339       0.01694671      -0.20568263      -0.01119157      -0.76639626      -4.98437436      -2.16354817
I        7.07117872       9.92579799      12.87587258      -0.14005197      -0.29658712       0.11452699      -0.00469764       0.74976259       0.89653536
I       13.22470259      12.69880649      23.33230279       0.03553093      -0.04982398      -0.35755609       0.14289491      -3.58447264      -1.13669105
I        0.35054809      13.24083999      16.12617496      -0.14469830       0.09945346      -0.08296281       0.84947180       0.62209106       1.94968644
I        6.13769352      13.51339652      16.56596273       0.15686970       0.06032167      -0.04985362      -2.21309990       0.43438082       0.24734889
I        6.65058697      12.40297400      22.97555845       0.07305081       0.14165161       0.24188280      -0.22555686      -0.95480699       1.39087267
N       16.98427303      17.45356961       2.66489045      -0.19099196      -2.61039485       0.01641619      -0.95071702      -0.80797876      -0.31328716
C       17.37940700      16.60412870       3.90347938       0.42424978       0.76180621      -0.51262686      -0.25594368      -0.54046419      -0.80919830
H       16.74862270      16.93711249       4.76954795       0.44093992      -0.39227665      -0.63219979       0.06750631       0.19339058      -0.06321404
H       18.46829128      16.81970702       4.06758117      -0.81399108      -0.18819468       0.17542850      -0.17419176       0.06888987       0.15611711
H       17.27364738      15.53580258       3.64230751      -0.18863025       0.37335532       0.09173866       0.10978314      -0.15851872       0.25622057
C       15.53291238      17.21096184       2.28146615       1.35775441      -0.67232200      -2.51162868      -0.58629455       0.33109344       0.05440352
H       14.91480383      17.29529587       3.11238683      -1.04707581       0.66008386       1.82789236       0.02996741      -0.02426879      -0.28508533
H       15.49402020      16.12690942       2.03433201      -0.04521281       0.51115294      -0.27638766       0.13928158      -0.14044303       0.23432296
H       15.19690819      17.86516182       1.41044602       0.53242280      -0.66757269       1.00635862       0.16700604      -0.08145781      -0.04508397
H       17.64297429      17.12542840       1.89930494      -0.69499730       0.56836306       0.45451564      -0.07889761       0.21357859       0.13611594
H       17.17396831      18.41679729       2.86869944       0.28997480       1.33817111       0.11600320       0.04756650       0.05580497      -0.08287182
N       10.63882804      23.27490982       9.78255880      -0.99909889      -0.39487565       2.45908492       1.03684155      -0.03023750       1.14811003
C        9.87288418      22.69301182       8.65496652       0.20819351       1.01835347      -0.63273406      -0.51730843      -0.04909285       0.80277372
H        9.70197127      23.41708473       7.77458404       0.63752713      -0.95775605       1.17463396       0.08996809      -0.08843283       0.06383932
H        8.91127139      22.38586095       9.01505954      -0.77713880      -0.24277140       0.36674779      -0.01670868       0.06097073      -0.32440963
H       10.47193709      21.81269058       8.45518736      -0.08419285      -0.38065618      -0.96481655      -0.05853434      -0.07546292      -0.09967171
C       10.93912251      22.26763979      10.92556016      -0.96774017      -0.34505611      -0.56480537       0.14692514       1.07171223       0.15965886
H       11.40250704      21.40628696      10.46589948       0.19797125      -0.47186647      -0.35809337      -0.06625558       0.16571705       0.04083159
H        9.94201438      21.92558902      11.36917822       1.15863009       0.63246965      -0.30638372       0.15981516      -0.14748611       0.09488905
H       11.67739783      22.67739536      11.63311340      -0.53095323       0.24214734       0.02132077      -0.09108192      -0.09758903       0.00014818
H       10.16842772      24.01722196      10.34356962      -0.16432277       0.26654117      -0.75896808      -0.22915975      -0.08013402       0.14413912
H       11.50781366      23.65326274       9.46353076       1.24705076       0.69524441      -0.49575034      -0.19824570      -0.35375689      -0.19232461
N        9.27003803      17.47279280       9.32271229      -0.37009433      -2.74462012      -1.76985690       0.22369491       0.35301982       0.41078409
C        9.92566331      16.81004980      10.45798611       0.81830439      -0.32731066      -0.98337816       0.16421201       0.23973261       0.23968319
H        9.25786997      16.86070384      11.28783458      -0.49388529      -0.52995998       0.84001767      -0.11718041      -0.19233197      -0.19771928
H       10.83148199      17.35658634      10.66592594       0.45822279       0.32161243       0.22495448       0.04635258       0.08667713       0.22518242
H       10.21819621      15.80891383      10.06672535      -0.25046351       0.24466353       0.75545521      -0.11547522      -0.06968932      -0.43060912
C       10.19011391      18.04146706       8.32204519       1.19593816       0.07540467       0.69323861      -0.11266240       0.48191993      -0.36115127
H        9.61183090      18.37856641       7.47562423      -0.12147562       0.12469716      -0.44291918      -0.15099074       0.05506246       0.23950896
H       10.99059061      17.31962655       8.05983322      -0.53676671      -0.01531324      -0.05568704       0.01611640       0.15203156       0.22004069
H       10.71976184      18.88978452       8.81756289      -0.38222089      -0.23913306      -0.32331762      -0.06185717       0.15720547       0.06890014
H        8.61428837      18.19658163       9.54995334      -1.06854715       1.59071740       1.03696660      -0.19151997       0.15364437      -0.05243742
H        8.62080534      16.71590944       8.90855911       0.90103212       1.12380056      -0.04589215      -0.23049233      -0.23748093       0.44738931
Cs      16.53641620      23.30806172       2.88783364       0.07657315       0.08485612       0.01236578       0.14301100      -0.92678335       2.99457147
Pb       6.42268715      20.14099307       6.14222147       0.17878565      -0.06279220      -0.05927665      -1.84071683      -0.27606021       4.71905944
Pb      13.10478554      20.21495528       5.58280699      -0.05620269      -0.11162254      -0.08200027      -3.80743904       2.16625637       0.05225696
Pb       6.39530241      19.66697331      -0.37933823      -0.09488096       0.05183004       0.16455050      -2.59772557      -2.54201893       3.94225063
Pb      12.86727121      20.26440241      -0.45312600       0.11703561       0.02556921       0.06384636       3.61379444       1.86439048      -2.41937735
I        9.83237600      20.42175764       5.41591420      -0.04919787       0.10888194      -0.06696265       2.84646091       1.37658185       0.27366837
I       16.40202653      19.55769431       5.75638902      -0.01236001       0.18468987       0.16242515       2.35068856      -2.69846383       0.85159896
I       13.45063808      16.75801871       5.96484478      -0.23939462      -0.22225129       0.00552754       0.50462435      -1.50605642       1.55481262
I       13.58262894      23.05676078       6.40811882       0.03185417       0.33200898       0.11280543       1.67981346      -1.00439997       2.35273660
I       16.08069494      20.20875741      -0.01191969       0.16650959       0.03081962      -0.15610787       2.67545006      -2.66039965      -0.28218068
I        9.83808407      18.86767324      13.75852061       0.11252575      -0.06937425      -0.46367882       1.16836133       1.46761937      -4.22717996
I       13.59605249      23.74302232      13.39004116       0.12122553      -0.29800913       0.03944223      -2.36876121       0.34771304      -0.37180748
I       12.27868493      17.09890091      -0.20567163       0.01890574      -0.08711579       0.14414846       1.02194741      -0.54508062      -3.22245532
I       19.30767277      19.71798695       9.86040233       0.01274669       0.04904566      -0.11113165      -2.39709158       0.27616130       1.03268128
I        6.02207805      19.71744541       3.10292570      -0.03437118       0.03923565       0.06703022       0.82832484       1.12122574       0.46501735
I       13.31310742      21.49625137       2.81234284      -0.16127492      -0.25158249       0.02262121       1.58330113       0.43652201      -1.35757105
I       13.65957992      18.74377775      10.20607623      -0.03199862       0.16208001       0.15263165       0.24142514      -1.68921425      -0.35479000
Cs      16.76004846      16.81784658      16.92583122      -0.04070766      -0.02012406      -0.08760168      -2.22091110      -1.44674755       2.43386698
Cs       9.48025830      22.76510702      23.05203578       0.10729963       0.20814667       0.08709492      -1.34238989      -3.65195978      -1.31027139
N        9.69466752      16.07468500      24.08292648       0.81383372       0.23769544      -1.35555288      -0.23427546       0.10291665      -0.44734974
C        9.14498097      17.31516987      23.30137182       0.82941777      -0.35490403       2.10787150      -0.45364545       0.41326156       0.80678318
H        8.30575455      17.07565627      22.65784205       0.00023505      -0.35529085      -0.20869033      -0.00768886       0.03284852      -0.01139449
H       10.02179245      17.72107958      22.78544211      -0.22565023       0.06752168      -0.23497969       0.17418559       0.43693919       0.14004394
H        8.82291706      18.00065040      24.13294952       0.13257694      -0.28194454      -0.86391389       0.23215224       0.00318323       0.08626349
C       10.44588306      15.05653391      23.22950448      -0.27059132       0.24691523      -0.84982929      -0.98688347       0.03832715       0.24498919
H       11.16116711      14.44806757      23.84698400      -0.56307781       0.56218168      -0.29039123       0.03371944       0.15809688      -0.27048429
H       10.99152411      15.66537650      22.45737327      -0.26191423      -0.62859387       0.65268252       0.17422738      -0.06274334      -0.05655377
H        9.72668102      14.35985587      22.69737138       0.52207562       0.80972921       0.60996403      -0.06953086      -0.16486449       0.19093481
H        8.89188335      15.58481924      24.49601021      -0.03732866       0.24197307       0.70434663      -0.02947173       0.00322339      -0.19527182
H       10.42118490      16.46337340      24.78887021      -1.07813368      -0.51476192      -0.29891819      -0.22192439       0.14977551      -0.32348657
N       15.95314007      24.04874377      15.88195143       0.02263556       0.05037733       1.47557133       0.70144508      -0.26136811       0.10226104
C       17.28927261      24.66650423      16.10526355       0.79383482      -0.60200333      -2.04785068       0.01796752      -0.57297827      -0.21434618
H       17.44128224      24.69137568      17.16525565       0.13665955       0.63770734       0.78287014       0.11203504       0.16208023       0.18138338
H       17.43064096      25.61997287      15.49042084      -0.35413699      -0.91650363       1.09670525      -0.30376485       0.16942825       0.02466546
H       17.99653290      23.91208909      15.73061401       0.12844393       0.22187083      -0.15680611       0.09200136      -0.14429657      -0.08038689
C       15.87812851      22.54674326      16.20695649      -1.38687089       1.04761094      -0.21895327      -0.11854410      -0.28663523       0.00561889
H       16.51438360      22.01223180      15.49906347       0.14409937      -0.03580290       0.06939022      -0.21204479       0.08602856       0.17379213
H       14.80218104      22.26129106      16.06277314       0.76838972       0.02149098      -0.05989613      -0.03195892       0.12074011      -0.12455358
H       16.11830134      22.37624153      17.25832440       0.35084885       0.09508351       0.04159534      -0.09789698       0.01727118      -0.03533784
H       15.59584874      24.18713947      14.92004741      -0.13555699       0.13495873      -0.18565557       0.39540327       0.11047702       0.02103790
H       15.35313682      24.62601906      16.53563629      -0.39371318      -0.70850477      -0.72007053      -0.16800836      -0.02095519      -0.15748802
Pb       6.66254972      20.11669812      19.31608577       0.15170537      -0.14786445       0.71232687       0.10203471      -4.08580609       0.51125156
Pb      13.25253990      19.64094597      19.62141345       0.09746511       0.00812353       0.53158926      -0.65403661       1.32811742       0.14304711
Pb       6.81668588      19.95311533      12.93135074      -0.23365302      -0.29714083       0.01528615      -2.28211446       0.82452032      -4.10180421
Pb      13.08106831      19.46544733      13.21802899       0.24203830      -0.30603012      -0.07314499      -0.63045426       1.57424913      -0.25770330
I       10.07747541      20.17261210      20.79153723       0.06900126      -0.20774920      -0.46593911       0.40138927      -2.22570294      -0.70037377
I       16.45662451      20.18634149      19.68398079       0.04905759      -0.15518075      -0.08259858      -0.66626975       0.95981840       1.54522179
I       13.07651277      16.23489533      19.98830664       0.06331942       0.24188979      -0.07961846      -1.09376711       1.85617717      -1.58887492
I       13.68586324      23.52960880      20.01323428      -0.03855042      -0.05943015      -0.09636747      -2.07549262      -2.40767457      -0.12891213
I       16.56328770      19.41266878      13.76785551       0.09192050       0.05080041      -0.13101661      -1.39110631      -0.41653214       0.26632473
I        9.38020923      20.49167844      26.38777747       0.12502978      -0.12366951       0.04505895      -1.24530289       0.79463982      -1.22461735
I       12.40806873      23.15279988      25.98394736      -0.00651470       0.33990527      -0.02934276       0.48140885      -0.68059055      -1.18665256
I       13.78871313      16.51486625      13.90145114      -0.05421297      -0.12919691      -0.15296449      -0.51731941       0.21081361      -0.70136732
I       20.02267642      20.18598485      22.87140316       0.05559217      -0.04753628       0.12410003       0.02818214      -0.99798184      -2.76247328
I        6.95966006      20.14009510      16.43707230      -0.05334082       0.13354464      -0.49829768       0.52561309      -2.56847654       0.76530073
I       13.25548606      19.02252394      16.67075840       0.07863442       0.01105408      -0.16553360       0.23649054      -0.95221549       1.44357870