360
Lattice="25.60694839526076 0.4857248057619611 0.09964851608631388 0.5060014197990086 25.20404015550539 -0.1699248978640408 0.06309124669382218 -0.18031785034105685 25.655758578219647" Properties=species:S:1:pos:R:3:forces:R:3:momenta:R:3 energy=-1113.4608154296875 stress="0.0012570649851113558 0.0005010790191590786 0.00017171019862871617 0.0005010790191590786 5.918303577345796e-05 -0.000482906645629555 0.00017171019862871617 -0.000482906645629555 0.0006747154984623194" pbc="T T T"
Cs       9.12060251       9.51052770       2.54116193       0.06192361      -0.26442695       0.20586529      -1.98703669       0.78540131      -0.39743506
Cs       4.31011219      16.07614195       9.52240643       0.05246741       0.04158746      -0.14910025      -1.92346379       2.39089673       0.28328803
Cs       3.66386618      10.13121869       9.47948853       0.05636337      -0.03848586      -0.07302891       1.49229289       0.85267065       3.25842339
Cs       9.70211899      15.16180690       2.89590567       0.01009065      -0.00619667       0.03931650       1.09847701      -1.71534518       0.13803697
Pb       0.38983292      12.75397325       6.04906070      -0.14763460      -0.14732239       0.50940038       3.46163241       0.58472319      -0.03386342
Pb       6.30011643      12.48757309       6.04317207       0.12662695      -0.02382275       0.22741801       1.86425591      -1.01613403      -2.58584274
Pb       0.04936974      12.28079005      -0.19835912      -0.03009846       0.07843450      -0.03087935      -4.01830296      -0.27554321       0.19639075
Pb       6.55078795      12.83018724      -0.22347919      -0.05092883      -0.38062484      -0.21373353       0.87450631       0.46130179      -0.59698538
I        3.36305525      13.40570908       7.13301742       0.23878653      -0.07663777      -0.10610747       0.00724106       0.80374782      -0.70557865
I       10.06122779      11.91235367       5.42300105      -0.10095299      -0.00175822       0.07490448       1.20630499      -0.09017174      -0.22033460
I        5.88080731       9.37245734       5.97290536      -0.14717724       0.18948381      -0.10244711      -0.06022661      -0.10078858      -3.78032380
I        7.30561841      15.46840520       6.16174551       0.07404970       0.20491049       0.00999802      -2.28853088       1.97067984      -0.23502564
I       10.01760582      11.97906202       0.06580121      -0.02939427       0.26932852       0.05626777       0.65861685       0.69268997       0.47382151
I        3.42516811      13.55757144      12.12097409      -0.01832823      -0.07259813       0.07603404       3.90074586      -1.50325122       0.31113706
I        8.01458879      15.59291164      12.60813875      -0.16327161       0.19260130      -0.21675394      -4.27738745      -0.73025242      -0.94506942
I        5.90200831       9.39770688      -0.24523008       0.06620386      -0.04725941      -0.04368893      -0.15900354      -0.37501363      -0.95358050
I       12.42707132      12.99155123       9.54882105       0.06239928       0.15300931       0.00242151      -2.56983080      -0.07419317      -0.35520002
I       -0.27618503      12.44594063       3.21380445      -0.01623181      -0.08420544      -0.99447889      -4.15181952      -0.40565871      -1.17048785
I        6.52311966      12.17497420       2.83612542      -0.05335550       0.10304636      -0.00230947       0.33730791      -0.99743796       2.17150061
I        7.26121672      12.30777290       9.12652077      -0.10136671       0.02849865       0.13997400       1.47588117      -0.45751778       0.96664852
Cs       9.22335425       9.33966455      15.88611159      -0.06713728      -0.11157983       0.40045839       0.43308712       1.49964986      -0.19269584
Cs       4.62448417      15.83435132      22.06890658      -0.19831499       0.11496152       0.10259851       2.77097335      -2.90464864      -2.65028401
Cs       3.33645975      10.19415355      21.77916233       0.20910125      -0.06732489      -0.01445177      -2.18266818      -3.75693978       2.58837467
Cs       9.92965408      15.84361899      16.24807770      -0.06949045      -0.07210835      -0.12458857      -0.21133154      -1.41698705      -0.47466549
Pb       0.19002338      12.73880542      18.73133484       0.21067024      -0.23465408      -0.12582931       5.66836940      -0.30000645      -1.89679319
Pb       6.86384706      12.74766125      19.17807983      -0.00884164      -0.02848757      -0.15712881       0.56251932       2.21479529      -3.32215264
Pb       0.21121494      12.87144931      12.28658395       0.05003454       0.01948156       0.16868352       1.99049146       5.44494918       1.03167742
Pb       6.59197944      12.66816538      12.57647481       0.24243435       0.16090239      -0.01143971      -1.14834259      -3.20841670       2.19682872
I        3.66935470      13.26129835      19.43276541       0.02579539       0.06809779      -0.08283415      -0.18205440       1.36192708      -2.71490934
I       10.16724628      12.08848060      18.89155006      -0.46861719      -0.14149424      -0.09770218       1.79686529       0.22590710       2.06153961
I        5.90445768       9.52514486      18.62013889       0.17180844       0.03690402       0.03071970       3.28382692      -0.87787747       0.35680660
I        7.45426790      15.91061452      19.80053907       0.14191770       0.01495091      -0.27181208      -1.13965175      -4.43126341      -1.52788569
I        9.61268473      11.42568606      13.17508928       0.24172035       0.29400998      -0.38598977      -0.57716263       1.25362934      -0.77506882
I        3.23198189      12.29558288      24.84881163       0.29353515       0.28775625       0.12149002       3.22591347       0.47562380       0.67407235
I        7.16878783      15.67464650      25.04730459       0.12499726      -0.17094288      -0.02738096      -2.08509998       0.38151093       0.74981550
I        5.67602925       9.71137492      12.75565451       0.08272908      -0.19721093       0.06525663       0.59805506      -1.83171275       0.39903529
I       12.68437431      12.98596508      22.54966743       0.03322727       0.29229979      -0.29432431      -2.20971846       0.00238001      -3.52307781
I        0.86425488      12.07380066      15.64915940      -0.00533433       0.23305401      -0.26789492       1.88697562      -0.62906823      -0.67304937
I        6.90987939      13.33930194      15.65980107      -0.20468337      -0.06059911       0.26806730       0.50347465       0.29553287       1.39494417
I        7.38070030      12.43708743      22.21677488      -0.08898452      -0.08236896       0.05981264       1.63439832       1.50473787      -0.25072961
Cs      15.64765454      15.95489169       3.63507482       0.03030017      -0.34174977      -0.18483936      -0.47238238      -1.11719151       1.38971690
Cs       9.53095467      22.03457585       9.31434914       0.07377729       0.25297410      -0.13165909       1.38518121      -3.99552370      -1.29531233
Cs      10.18977425      16.81684500       9.28097454      -0.05561155      -0.36518266       0.07903347      -0.45551983      -2.36142071      -0.67250447
Cs      16.12840636      21.16715641       2.44316866       0.09710504       0.32468264       0.10526684      -1.19756734       1.21278835       0.21499635
Pb       6.90423217      18.72426296       5.91082436      -0.08992432      -0.04772513      -0.11297846       1.54123180      -0.44917546      -2.17231198
Pb      13.27509727      18.85623291       6.37866000       0.13037606       0.08082923      -0.07818818       0.25470336       2.76574904       0.77532348
Pb       6.65698543      18.88793216      -0.31429958       0.27921466       0.37615232      -0.02372807      -2.88529274       2.63777999       1.30188906
Pb      13.40985518      18.98048795      -0.27471742      -0.12491167      -0.10021052      -0.04198050       0.34999683      -1.08683177       1.32169063
I        9.93497162      19.14506110       6.24628729       0.25833199       0.14957211       0.07296482      -0.24286678      -3.09288723       1.70297772
I       16.53205793      18.93704844       5.45849888       0.00558807       0.01301067       0.20910491       0.35175246       0.40543361       0.04265372
I       12.23110061      15.60669452       6.01817018      -0.03644478       0.45236162      -0.09238772      -0.97013615      -1.02561174       1.70050746
I       13.66621154      21.94050806       6.47973116      -0.14405666       0.06890874      -0.08022320      -0.83304070      -0.64647859       0.42514436
I       16.62415517      18.49183606      -0.05852382       0.06854969      -0.07257305      -0.02765135      -3.43871537       0.31291276      -0.04842164
I       10.13366820      19.57631901      11.83509313       0.01703533      -0.12105542       0.33872558       1.21527536      -1.70400698       0.97071269
I       13.51939784      21.93427596      11.44540885       0.12261433      -0.62965489      -0.15409043       0.62864751      -3.28539927      -1.03109826
I       12.70213592      15.88879454       0.56100354      -0.00767187      -0.21944934      -0.14395730       0.99374046       0.83233106       1.81237879
I       18.86336961      19.27496777       9.09916342       0.00702878       0.13931545       0.19296797      -0.40082895      -0.91528367       0.55643577
I        7.65216055      18.74924101       2.72077615      -0.02923428      -0.10385185       0.25403459       0.13247725      -2.07907201       1.25294981
I       13.21546840      18.74813306       2.98917953      -0.16852173       0.25276850       0.12391571      -0.09286986      -0.20612075       0.26484171
I       13.70784210      18.48827938       9.51891069       0.06145223      -0.16737887      -0.15695938       2.06461866      -1.52096330      -2.41520139
Cs      15.59349040      16.09489510      15.39656636       0.05559776      -0.10838778       0.06544839       2.74455747      -0.63707493      -2.62233596
Cs      10.65712574      22.39838099      22.36047606      -0.07104848      -0.02753641      -0.03898249       2.33998080      -4.05414374      -2.35605631
Cs      10.50011940      16.56867636      22.34915152      -0.04281638      -0.16983231      -0.07012554      -1.28096713       0.84538681      -4.46976766
Cs      16.48080621      21.74343663      15.92145754      -0.10392472       0.00970399      -0.02131136      -0.10562231      -0.90055141      -2.36873782
Pb       6.96077036      19.20609491      18.76491626       0.00110890      -0.04279284       0.34199811       2.15158746       4.58311144       0.74633015
Pb      13.40825054      19.09433787      19.08531579      -0.10932767      -0.18963128      -0.01556880      -0.88407767       1.78426628       5.13807221
Pb       6.63622630      18.99201130      12.62616837       0.08576988      -0.06262412      -0.16965022       1.84225600       2.09686756       0.16728000
Pb      13.12420076      18.75476255      12.63013265      -0.04651449       0.01013833       0.01402524      -1.81429957      -1.14530972       4.37327965
I       10.26811540      19.53118147      19.80369035      -0.11798350       0.03605787      -0.14430013       2.90751271       4.22856548       1.15058253
I       16.51419048      18.76317977      18.09211362       0.06654054      -0.13625724       0.15175054      -0.61815380       1.95051229      -0.54359536
I       12.29345091      15.80615803      19.03424904       0.25011707       0.06000840       0.04179001       1.51189218       1.60667929       1.23181944
I       13.96272013      22.23920991      19.69960645       0.07686249      -0.37942116       0.07273068      -2.65202676      -0.92381182       0.21444075
I       16.48945807      18.98129095      12.80396927       0.05892916      -0.03627138       0.08176258       4.51053887      -0.14989639       3.55176187
I       10.32405436      19.25603464      24.83317077      -0.04192776       0.08867915       0.10329370       0.77138114       1.06741799       0.64718505
I       13.88048695      21.92672420      24.94406724      -0.04084741       0.17457867       0.14392628      -1.55145833      -0.39742253      -1.47077580
I       12.28398647      15.57655836      13.09490244       0.00731641       0.22701947       0.03974864       1.82638986      -1.24206699       1.83163412
I       19.19630823      19.93433136      21.83412205       0.00727681      -0.04501278       0.07901324      -0.40308592      -1.84390625      -1.29175235
I        7.06942792      18.41879469      15.68526431      -0.05306658      -0.09683736       0.25704395      -1.14652878       2.85510514       0.10055343
I       12.92606859      19.02953855      15.97876330       0.02133397      -0.03166961      -0.28566379      -3.48585012       0.20822057       0.31460392
I       14.01499485      19.10517277      22.17742426       0.11586186      -0.27977792       0.06935173      -0.10416965      -0.53714123      -0.73669840
Cs      10.64690426      21.71282145       3.35229076      -0.05700969      -0.11241710      -0.13873864      -3.79710592      -0.08116468       1.44305853
Cs       3.73043976       2.89398667       9.47887029      -0.07091869       0.07514564      -0.11675581       1.58677025       2.37363550      -1.05673840
Cs       3.69149708      22.49929669       8.96841101       0.09888252       0.01229744      -0.05184321      -0.67633560       0.32732569       1.13284629
Cs       9.53050537       2.40839902       2.68927346      -0.00229471       0.16602140       0.13026854      -3.91223461      -1.94947446       3.47673993
Pb      -0.06657936      -0.00240154       6.06976003       0.14178832      -0.10015761       0.28660546      -1.06699451      -1.76062170       2.68144241
Pb       6.75999052      -0.25032845       6.19850251      -0.40963776       0.02693115      -0.06823794      -0.79141377       0.91520571       3.75206068
Pb       0.08012890      -0.10540264       0.08555382       0.07768306      -0.26191183      -0.16989192       0.01708241       1.83292064       3.61294083
Pb       6.38711429      -0.07164905       0.17815422      -0.10578684      -0.06863509      -0.33729885       3.25000438      -2.23194300      -1.88150337
I        3.41039116       0.22325582       6.32096206       0.00551707      -0.00128658       0.38111150      -1.39268114      -1.25761203      -2.02502359
I       10.16865479      24.92330631       5.02613744       0.10468490      -0.06497079       0.22157340      -0.42045577       1.23562464       1.46198837
I        6.34681445      21.76110783       5.73894539       0.02279455       0.30841919       0.04825321       0.18159287       0.58796620      -1.72795739
I        7.14314935       3.34004935       5.99678759       0.21080941      -0.68926902       0.13713708       2.39849061       0.55627173      -0.93410954
I        9.97311810      24.33707574       0.37707996      -0.17696179      -0.05018187       0.02650915      -0.99205020       0.44827067      -2.39079350
I        3.32878792       0.55599415      12.58101400       0.19075926       0.15584946      -0.10216811       0.92857870      -3.49234359       0.83834957
I        6.86646924       3.19562760      11.96204927       0.10540549       0.15046139      -0.08513960       0.54352814      -0.13308772       0.82824420
I        6.34517627      22.01912393       0.55904525       0.03092114       0.21652091      -0.08667222      -0.38487764      -1.65792154      -0.95214605
I       11.80782432       0.37448963       9.18866049       0.18124110      -0.05452420      -0.03081723       2.92947697      -1.88800413       0.05492499
I        1.68035698      24.92451363       3.13463381      -0.17349979      -0.10987966      -0.55712325      -2.07656193       0.16692476       0.05370448
I        5.57925424       0.39205141       3.12263672       0.42637899      -0.29977212      -0.15977840      -2.98390743       1.27819079       3.19616282
I        6.99598269      24.95705940       9.17645935       0.05249110       0.01615166       0.08350816       1.83293401      -0.95657622      -0.57886387
N        9.31226345      22.87086243      15.65068448      -0.57842198       0.77594723      -1.79533945      -0.12362168      -0.03681092       0.08253082
C       10.46502249      21.89959441      15.58807284       0.04457521       0.96907948      -0.71404992      -0.33209336       0.09233265      -1.14944721
H       10.43918429      21.51431789      14.54463384       0.14449153      -0.19830870       0.59996458      -0.04278454      -0.04062154      -0.16302029
H       10.17128741      21.16648643      16.32363512       0.47455413      -0.71335402       0.23813622      -0.09432826       0.02993207      -0.03458984
H       11.47625888      22.37448036      15.76650286      -1.10779439      -0.29736464       0.05327190      -0.22603192       0.09615901       0.01493812
C        7.96959607      22.14447617      15.50142834       0.60378974       0.07608038       0.40313164       0.27563320       0.98619323      -0.57739772
H        7.84643804      21.42341846      16.34408019       0.09211134       0.62598317      -0.16802978       0.25626818       0.12153681       0.10153741
H        7.95338516      21.54510550      14.58672336       0.33987354       0.09023987      -0.31070618      -0.03186642       0.11596932       0.13564263
H        7.17673086      22.89979224      15.44069822      -0.01569466       0.02840789       0.24473633      -0.19080800       0.03786952       0.19007655
H        9.42079582      23.64463230      14.88301074      -0.10080640      -1.24621028       0.63679934       0.26468263       0.08242381       0.27900753
H        9.28457044      23.42907260      16.50139671       0.22332876       0.05093455       0.86328432       0.18462460       0.23719491      -0.00492550
Cs       3.63989200       3.34695434      22.89916797       0.05123262      -0.13049862      -0.02891658       2.46435948       1.31331375       2.10220830
Cs       3.75492908      21.72075446      22.24861302       0.02895744       0.10235598      -0.06171633      -2.22049491       2.15758373       1.07145864
N        8.97064941       3.89299437      15.36947434       1.89006155       0.32831634      -1.59018888      -0.13848832      -0.01763377      -0.52932874
C        9.64720005       2.54047030      15.40553132       0.63760031       1.20921312      -0.61917136      -0.53596145       0.07435455      -0.59899742
H       10.60579627       2.67824407      15.90358682       0.06064826       0.13269584       0.34042656       0.01523744      -0.16195642       0.27581646
H        9.90671373       2.29805123      14.38111886      -0.19287368      -0.41132499      -0.33518367      -0.23671117       0.20686393       0.07104535
H        9.07181947       1.80064108      15.90262234      -0.82706510      -0.61959673       0.51084668       0.06229789       0.20551503      -0.06257484
C        9.40712468       4.80159089      16.43653768       1.23386247      -0.95449480       1.68976191      -0.64682981      -0.53500233       0.57574545
H        8.85343788       4.44862372      17.35101772       0.85439824       0.45801452      -0.35512246       0.20310097      -0.04987225      -0.09713694
H        9.12081663       5.78291521      16.18888933      -0.72944941       1.47937604      -0.29549567      -0.09548852      -0.30100340       0.03285791
H       10.53602624       4.86350674      16.57176149      -1.16919417      -0.69849240      -0.14485097       0.16432757      -0.11961476      -0.07458610
H        7.96316266       3.94292200      15.40173902      -1.36990950      -0.67455221       0.01045090      -0.03564945      -0.28876426      -0.04026372
H        9.16819172       4.35069909      14.42651748       0.07143455      -0.36827981       0.90068051      -0.04224117       0.12944195       0.09608989
Pb       0.55983939       0.01805566      19.47235323       0.03389650       0.15771190      -0.05575315      -0.01851388       0.70151860       0.44449259
Pb       6.53615771       0.19215331      19.07534115       0.08421278      -0.06112909       0.35575531       1.05293246      -2.46418580      -1.42066265
Pb       0.20176907       0.02370765      12.92984503       0.03049446       0.17048264      -0.19021293      -1.05800729       2.91235348       3.32404365
Pb       6.51581004       0.30783304      12.86929477      -0.03642838      -0.26210859      -0.07497835       6.17018043       1.65105429      -1.17037086
I        3.61591405       0.97696872      19.93282203      -0.36533141      -0.09784108      -0.07591780      -1.46140962      -1.57871111       0.55682438
I       10.30685951      25.00823455      18.90022918      -0.04454898      -0.05279434      -0.04823097      -0.08022402       0.59756813      -1.04576818
I        6.06026608      22.32279807      19.06302244      -0.03665998      -0.19422910      -0.16543433       3.32216206       1.53889577       1.51319193
I        6.91817815       3.16155207      20.16723596       0.15838306       0.21385252      -0.08996058       1.19987390      -2.27973078      -3.24735204
I       10.20897018      24.63261965      12.48831092      -0.04106144      -0.00587569       0.01733406      -2.46474673       4.12494865      -4.86455336
I        3.09763061      -0.05399291      24.47797566       0.06582269      -0.04187636       0.29829547       2.34715912      -1.63926604      -1.82961050
I        7.55707719       2.90879277      25.39391293      -0.10440521       0.09740906      -0.15331101      -2.13186578       0.60840041      -0.05253322
I        5.73036035      21.99940705      12.44734768       0.16825500      -0.00940204      -0.24036210      -0.96569332      -3.71093231      -2.88943509
I       12.46847442       0.34677006      22.59660866       0.02393198       0.08001835      -0.35639436      -1.21543440       0.27003519      -1.22845475
I        1.43532036      25.23164965      15.69203996       0.01421199      -0.13787390       0.40801954       0.90535921       0.46366243       2.35157570
I        6.04717425       0.83133769      16.06504452      -0.00941606      -0.01519075      -0.22476564       1.33338305       0.32348469       1.74154975
I        7.69344022      24.90914394      22.26611168      -0.04086520      -0.08173047       0.13843172      -2.26774368       2.11512684       0.43268668
Cs      15.88642616       3.34401349       3.06412959       0.05992560       0.00639788       0.02932622       1.28852991      -0.66111538       1.34360456
Cs      10.30442091      10.02260557       9.28189220      -0.26297951      -0.13380955       0.04925080       1.99851251       1.25617282      -1.58144278
Cs       9.70407418       3.45336290       9.17958158       0.05844239       0.07666418      -0.03752146      -1.01130041      -0.41268184       0.19162610
Cs      16.30436918       9.63616614       3.52364466      -0.07302659      -0.12241349      -0.09662840       0.57662680       2.17680653      -1.35216291
Pb       6.53068660       6.22662280       6.24867133       0.02410129       0.36754912      -0.22509400      -0.54641768      -0.59195970       1.78804227
Pb      13.11067941       6.67062430       6.45557792      -0.10045851      -0.00703385      -0.42235499      -1.77191554      -0.71079005       0.56459779
Pb       6.58851969       6.28669001      -0.41337236      -0.03587622       0.06362167       0.23028970       1.72072994       2.11151855       0.38447253
Pb      12.71736673       6.38847048       0.24088002       0.17393817       0.14606818      -0.23037738      -1.07593655       0.98428889      -1.27764680
I        9.91021266       7.08775677       6.62130417      -0.00782671      -0.11046137      -0.05478074      -2.09070045      -0.39127617      -2.21359632
I       16.29941617       6.21980953       6.03788742      -0.10207937      -0.05799389      -0.21341008      -3.85809068      -0.76175134       1.18311863
I       12.36803290       3.09383261       5.25584984      -0.02950692       0.27550106       0.04060764       0.83050594      -1.01306386       0.03942941
I       13.43622773       9.47910082       7.52963674       0.30961233       0.17565776      -0.21761793       0.86375225      -2.28898592       2.68824301
I       16.48894899       6.09798611       0.41459300      -0.34980987      -0.05821752      -0.00075920      -2.17899174       0.42025958       1.06011476
I        9.87932070       6.98367997      12.98689609      -0.13446510      -0.11193259      -0.17968804       1.80567747       0.74577234       0.22685913
I       13.89260179       9.47478575      12.07738304      -0.09658157      -0.12627214       0.09180975       2.77150118       1.91661856       0.87974857
I       12.85299148       3.29839168       0.61706138      -0.23442100       0.17468803       0.06728867       1.69587677       1.09051361      -1.38491587
I       18.28750570       6.66576919       9.36165766       0.09631948       0.14632718       0.04902380      -1.29149371      -3.55176164      -2.29181953
I        6.53962679       6.37620938       2.96136944       0.11272630       0.05398557      -0.18018663      -1.66835337       0.25403457      -1.15249978
I       12.87684228       7.66519286       3.01696650       0.01700063       0.00001683       0.07564893      -1.79314085      -0.60760557      -1.02012106
I       13.15370070       5.93529085       9.27299825      -0.04564850      -0.31999632       0.55644560      -0.32834949      -0.99248792      -1.18870174
Cs      15.01498361       2.63057020      15.73358355       0.07228312       0.09565140      -0.02318778       0.10492250      -0.96911595       1.17161795
Cs      10.57121703       9.96491404      22.53623406      -0.06912307      -0.16189934      -0.13544272      -4.40661602      -1.58459067       0.82747523
Cs      10.26204904       3.44797102      22.22395835      -0.11147916       0.01206971      -0.00833210       0.27159718      -2.78246148       1.63876521
Cs      16.55589935       8.75220873      16.42227305      -0.25299759       0.15262878      -0.16478750      -1.16319517      -1.97845168      -0.77786925
Pb       6.57627556       6.21461160      19.20150554       0.11326736       0.11284892      -0.05049799      -0.40050994      -2.83868349       1.98607549
Pb      12.99322526       6.43175714      19.70533904      -0.01753885       0.20389684      -0.05487085      -0.21028466      -2.26859244       2.80453929
Pb       6.69941399       6.38595352      12.33955030      -0.14544916       0.15340381       0.04581687      -3.12658076      -0.83340423       4.39271761
Pb      12.89939869       6.52459783      12.96116410       0.30181796      -0.11094807       0.03451581      -0.61103842      -0.36449341      -1.40318305
I        9.81269037       7.01277151      19.97818381      -0.12950171      -0.05076028      -0.00937024      -1.07034709      -0.07117185      -2.46522401
I       16.03218863       5.99310323      18.80754214       0.28279268       0.03136765       0.05822906       0.42642768       0.76541881      -0.79402549
I       13.39028621       3.51467202      19.12842187      -0.26616981      -0.49911738      -0.08558487      -2.66469391      -3.91900290      -1.51286511
I       13.80960425       9.62404571      19.96652919       0.09395683      -0.14875795       0.01017772      -0.90980377      -1.06671873      -0.65123047
I       16.21494018       5.69723152      13.57032839      -0.02293211      -0.03167294      -0.12853913       0.27054167      -2.80899863       1.31097763
I        9.85175090       7.11460922      25.04236164      -0.04854200      -0.20084274       0.03757577       1.71334028      -0.67829435       1.13020027
I       14.18976385       9.58210664      24.41249310      -0.08805136      -0.08651477       0.25844542      -3.48181827      -0.77673665       0.85701754
I       12.69342839       3.07691280      12.74360125       0.02647004       0.13178699      -0.02706524      -2.45729866       2.63784762      -0.67073973
I       19.30792982       7.56782276      22.44605344      -0.06865599      -0.07514476      -0.16774971       2.39802674       0.25867352       3.04918902
I        6.39915391       6.12927522      15.56634335      -0.34677711       0.13081486       0.04013963       3.71454171      -2.68003166      -0.73961057
I       12.96240228       7.47093657      15.90823586      -0.08757430      -0.10441796       0.01831780      -3.15275025      -0.25028327       1.25873974
I       13.44721391       5.70438172      22.68557886       0.00867543      -0.04875373       0.00314594      -2.27538279      -1.90645938      -0.14649088
Cs      22.51978128       9.61571380       2.99747907      -0.02449624      -0.01882027       0.08721986       0.79644739       0.29884164       1.35732670
Cs      16.97995045      16.04402241       9.64296878       0.04519659       0.10038048      -0.11495736      -2.48901858      -2.29958684      -0.62836975
Cs      16.74528265      10.18786698       9.89168565      -0.05321606       0.08677968      -0.25910274       0.49385068       2.22875043      -1.95493923
Cs      22.01827968      15.71589454       2.86067762       0.28339466       0.00688292       0.04244859      -1.95750797       0.07257906       2.60471565
Pb      13.19677226      12.84488513       6.23937387      -0.31900848      -0.58198571       0.17844443      -2.14902486       0.58929541      -0.84220900
Pb      19.33796093      12.95800215       5.97140798       0.29841586      -0.01890544       0.16768664      -2.74780590      -0.62275021       1.34281586
Pb      13.32372827      12.57257119      -0.23606614      -0.00166156       0.05381787       0.17133641      -0.65829550      -5.67269462      -0.61860538
Pb      19.50126575      13.05679943      -0.28203173       0.22504180      -0.15300014      -0.12186561       3.09390199       0.58305695       0.44541601
I       16.23272772      13.24182478       6.67144791       0.24284753       0.08361223       0.01803143      -1.78133076      -2.55473253      -3.03761924