880
Lattice="26.897541037629924 -0.023272606257336778 -0.1120262405788048 -0.01001271621975265 26.73209692231944 0.10845726388424747 -0.02047155630475457 0.0860841513405201 26.647852269866252" Properties=species:S:1:pos:R:3:forces:R:3:momenta:R:3 energy=-3848.0688476562495 stress="0.0017009786097332835 0.0005209638038650155 0.00041012946167029446 0.0005209638038650155 0.0005149948410689831 0.00039527966873720294 0.00041012946167029446 0.00039527966873720294 0.0007411346305161716" pbc="T T T"
N        9.45003989       9.74124130       3.18830085      -0.15109521       1.00556565       0.03682998       0.22909190      -0.16912375      -2.30862850
C       10.22161361       9.45052185       1.99159909       1.17995450       0.69045129      -1.25332356       0.09402515      -0.17768902       0.17870573
H        9.73485605       9.85811776       1.10627722      -0.34524368      -0.13091367      -0.03634790      -0.14013718      -0.13333711      -0.00048758
H       10.53832552       8.40574205       1.81455478      -0.51399936       0.19491320       0.38400833      -0.17755275       0.03753117       0.11449302
H       11.13657796      10.07454972       2.11610005      -0.20521867      -0.62595702      -0.29501942       0.18533247       0.04642848       0.00253121
C        9.82358060      11.10110100       3.73507540       0.38152152      -0.49699985       1.26103518      -0.12107432      -0.77555890      -0.52979915
H        9.37402770      11.06595969       4.73927820       0.32826155       0.49596647       0.03996271      -0.16419360      -0.08411365      -0.06422877
H        9.34246247      11.89246703       3.17797897      -0.09363709       0.20416350      -0.50746149       0.00782036       0.04275872      -0.10574494
H       10.95451187      11.23478908       3.78619470      -1.34460673      -0.27275691      -0.06739177      -0.00964942       0.38076422      -0.20462128
H        9.74265990       9.06231129       3.85404131       0.58910559      -1.12436595       1.41848228      -0.08702581      -0.00196668       0.00660338
H        8.41686933       9.62260718       3.23434250       0.09489965      -0.04086336      -0.72090564       0.24547201       0.10840294      -0.07565465
N        2.03783047      16.36656367       9.72058662      -3.10428890       2.85963708      -0.86916490      -0.25264410       0.36879140       0.06060308
C        3.13593770      15.50956120       9.65010551       2.42516751      -3.28467643       0.81108509      -0.15379290       0.63414548       0.66408553
H        3.77529949      15.78701326       8.79978037      -0.11165625      -0.09751321      -0.10759851       0.01804793      -0.00634450      -0.14454253
H        2.77614476      14.40927219       9.54044457       0.66886143       1.64200107       0.11305832      -0.23592213       0.19689451      -0.06092347
H        3.80294073      15.59451649      10.56347687      -0.83620597      -0.12919939      -0.61019290      -0.13587124      -0.43244600      -0.16408744
C        2.36352217      17.72963129      10.26791836      -0.38920392      -0.28058098       0.16714483      -0.01686357       0.28691241      -0.94727593
H        1.62063629      18.51079942      10.05424140      -0.14296632      -0.37940942      -0.23028388       0.15084933      -0.23551137       0.18914580
H        3.29258932      17.99544593       9.82980813       1.01173950       0.41346407      -0.54822308      -0.08245562       0.37048190      -0.05407838
H        2.48546559      17.68112762      11.34546527       0.06032780      -0.24684258       0.39075979       0.10517336      -0.16631798      -0.01982218
H        1.19926413      16.02890297      10.24350038       0.37252044      -0.40090423      -0.03544533      -0.09053313       0.27645238      -0.12280339
H        1.66416559      16.49170815       8.70298483       0.08558583      -0.10331208       0.87719240      -0.19485414       0.05825823       0.28757646
N        4.19967128      10.68169901       9.33548000       0.01836163       0.71727348       0.01987615      -0.18838182      -1.01832927       0.02125307
C        3.30014664      10.06810274      10.30053989      -2.41928023       1.67021031       0.34309952       0.25753136       0.05652884      -0.22957717
H        2.30795690       9.72504151       9.88632762       0.90183179       0.54101833       0.01046188      -0.09067295       0.09172427      -0.07780217
H        3.11573819      10.84950964      11.11038299       0.12549325      -1.03665713      -0.62794218      -0.02967988      -0.07025149       0.14744418
H        3.81811980       9.23210200      10.65248530       0.66079221      -1.53290156       1.06431094      -0.18838718      -0.10686120       0.16582394
C        5.54153501      10.86916628       9.95639435      -1.24590627       1.32276894       0.80288067       0.68376283      -0.54708978       1.43871978
H        5.45445354      11.59299298      10.88004473       0.00915778      -1.47943092      -1.29080259      -0.09129305       0.17231305       0.06962996
H        6.06033465      11.44109814       9.18693227       1.08963009      -0.61585140       0.07660903      -0.10195566      -0.19822154       0.16635189
H        5.72216705       9.81802680      10.21485798       1.47039858       0.49336084       0.19539449       0.03948335       0.05726575       0.01613280
H        3.90852309      11.57467133       8.95318055      -0.72529807       0.90530041      -0.16223263       0.36572503       0.05110841      -0.00405117
H        4.32054989      10.12937008       8.50168417       0.03137955      -0.84843999      -0.77391121       0.17840383       0.01373394       0.03337662
N        9.46103583      17.07383992       3.55364379       0.14905351       1.12270980      -3.33825750      -0.17592790      -0.90273907       0.06237859
C       10.84036558      17.47753697       3.86109653       0.30407403       0.66191759       1.07014238      -0.06339483      -0.20558026      -1.02482443
H       10.77788390      18.34414395       4.55118586       0.15034471      -0.31344932      -0.14321306      -0.15180057      -0.07197513       0.03524622
H       11.51652166      17.80035315       3.00742865      -1.01348856      -0.78522588       0.47588822       0.09795932       0.15995895       0.19697979
H       11.13393190      16.60531925       4.41696119       1.43935747      -0.29637110       0.27417636      -0.11819401       0.02461567       0.01675630
C        9.46918536      15.97404965       2.48421099      -0.53347409       0.79817107       0.52507428      -0.21747810      -0.16978257      -0.39612222
H        9.96539055      15.18491021       3.03361993       0.24878231      -0.67114834      -0.29540987       0.11879078       0.28819214       0.09901179
H       10.11936802      16.36896504       1.65089268      -0.66239865      -0.49834308       0.61389972      -0.12755048       0.10645612       0.26290362
H        8.42468700      15.64986646       2.15328044       1.25151234       0.59361885       0.43881109       0.14030371       0.01666495      -0.27619695
H        9.07074540      17.96299800       3.13873804      -0.65470891      -0.29282285      -0.09525375       0.02427333      -0.05318429       0.04361744
H        8.88205476      16.92059082       4.37034003      -0.31870363      -0.52309142       0.68205431       0.23499654      -0.24599079      -0.17794804
Pb      -0.35571697      13.35416102       6.76205222       0.29718613      -0.00717233      -0.15118082       4.64700764       1.64679951      -0.75007631
Pb       6.93358206      13.67043736       6.39286638      -0.12669027      -0.08876367      -0.14163639       0.87528862      -0.78357443      -6.41600454
Pb      -0.35378558      13.08627182      -0.37293585       0.13558625       0.01316053       0.72985145      -2.42632981       2.51015468       2.37247411
Pb       7.23925983      13.02642173      -0.41225708      -0.17816635       0.18711100       0.15089482       1.12194299       2.84561387       0.40093838
I        3.82715395      13.43539897       6.72219442       0.00191793      -0.24063410       0.04683563      -0.31382245      -1.17772665      -1.15472627
I       10.01406951      14.05433605       7.16881035       0.17707293      -0.09938307      -0.08904492       0.28264058       1.55039332       0.48631378
I        6.70409183      10.07372606       6.29767444       0.04155544       0.05314545       0.03825910      -1.51176200       4.80459804      -0.04724474
I        6.92058837      16.83641186       6.75796422       0.03609171       0.05479544      -0.00662778       1.68733058       2.20513170       1.67613813
I       10.45277057      13.04988064       0.30038334      -0.21310365       0.16623143      -0.19926339       2.24345499       0.52003316      -0.24466815
I        3.66758931      13.85829389      13.05012745      -0.25992941      -0.10450489       0.08910928       0.41570315       3.82192229       2.69436643
I        6.34820626      16.85958144      14.16613766       0.08410412       0.19933611       0.04808407      -0.41637411      -1.67227146       1.05376653
I        6.28245572      10.07043492      -0.61074219       0.18422225       0.03919689      -0.00532633       0.89070959      -3.89506459       0.56508542
I       13.44625570      14.44526936      10.07164654       0.02397445       0.03866381       0.00861267       0.07105714      -0.01823640       3.09983066
I       -0.20728724      14.03981409       3.39357846      -0.02846274      -0.23154359       0.08003075      -3.01975356       1.90335837      -1.38299563
I        6.60097550      13.61632736       3.27167440      -0.05896017      -0.15631673       0.07724469      -2.92537283       1.30769494       1.12964475
I        7.79584874      14.80564965      10.69531356      -0.08695639      -0.15235648       0.11162362      -0.54412055       1.69680860      -2.63889623
N       10.32151008      11.42512895      16.82206595      -1.24731713      -0.94254803       1.16232111      -1.19501514       0.17892477       0.12808333
C        9.77134332      10.11351527      16.34081727       1.38761099      -0.12050855       1.27558633       0.27484604      -0.49884450       1.35664969
H       10.16108596       9.93723271      15.35542923       0.18458071      -0.15978156      -0.68966421      -0.08217620       0.04205060      -0.27974417
H        8.71520849      10.19356734      16.35092859      -1.26222085      -0.10776893      -0.06852778      -0.04970206       0.07505725      -0.52707508
H       10.14162727       9.34621670      17.04650647      -0.27369116       0.07653535      -0.25573013      -0.23688844       0.04278392       0.03959049
C       11.76658778      11.47584422      16.86350586       1.14640173       0.25964793      -1.23977561      -0.67689870      -0.00975499      -0.05529924
H       12.17605965      11.03430766      15.90878474      -0.36707227       0.55054515       0.65927968      -0.14073258       0.08053825       0.10228178
H       12.14160331      10.88107917      17.66490469       0.21872600      -0.56785269       0.86832653      -0.08646542       0.08722821      -0.02147098
H       12.09790350      12.52706975      16.98025639      -0.04879628      -0.36020231      -0.11174631       0.01233021      -0.10899556      -0.10403608
H        9.85860966      11.69341616      17.73557501       0.63280489      -0.14992482      -0.37353481       0.14069473      -0.14497417       0.21767495
H       10.01083688      12.10449617      16.15244197      -0.44238453       1.33755849      -1.08725233      -0.18085861       0.04342224      -0.02350252
N        2.67942268      16.61066856      22.87017107      -0.22371540      -0.28705970      -0.35781063       0.48146115       0.59018619      -0.07343076
C        3.99947418      16.13388208      23.42909757      -1.29004103      -1.24294213      -0.80248309      -1.07815805      -0.33320114       0.08099628
H        4.30925605      15.24916131      22.87364090       0.13348690      -0.08899600      -0.22682206       0.18895701       0.01970909       0.08774429
H        3.74715747      15.80491924      24.41715834       0.39526804       0.15185904       0.98958668       0.24431842      -0.00865482      -0.23956795
H        4.72257952      16.91724992      23.31590708       0.44406798       0.51808533       0.21488420       0.12139242      -0.00621630       0.02660141
C        2.49759623      17.96620947      23.34898534      -0.27747614       3.37216744       0.11674973      -0.22219959       0.28803890       0.83735858
H        1.65677485      18.55572841      22.89621962       0.13890721      -0.99480646       0.06912155      -0.11461949      -0.34393870      -0.14043177
H        3.36254574      18.68184786      23.09876301      -0.52885007      -1.39781742       0.37748657      -0.06427045      -0.48955550       0.07222382
H        2.32897372      17.98523865      24.43653964       0.20238609      -0.18729928      -0.05201945      -0.00573078       0.09614838      -0.23658868
H        1.80681609      16.02618364      23.14277617       1.46991776       0.45845176      -0.51371000      -0.01850540      -0.12264321      -0.23199482
H        2.74740858      16.64184076      21.82828084      -0.37580878      -0.32452927       0.24561763      -0.16919183       0.13419208       0.15296304
N        3.44627603       9.72604811      23.75885293      -1.11398051      -1.11589144       0.66533462       0.53743064       0.65779751      -0.11121524
C        3.46185337      10.61559841      22.53850244       0.58475426       0.05483806       2.43595667      -0.67121658      -0.47824580       0.51517986
H        4.51933707      10.86750226      22.44823498      -0.07723082       0.52007810      -0.52621777      -0.03782230      -0.36427381      -0.04357961
H        2.79519201      11.41055311      22.89338660       0.21358253       0.46221351      -0.86820527       0.17879827      -0.13604401       0.07632133
H        3.06818453      10.04101332      21.73788804      -0.38238244      -0.34860803      -0.97257415       0.21870553       0.12876786       0.20412987
C        2.03234064       9.23562498      24.04264236       0.47846181      -0.31467096      -1.46867873      -0.12800582       0.05159249      -0.07011750
H        1.26828627       9.97418500      23.80582015       0.24550035       0.42591838      -0.21999970      -0.14180625      -0.18892455      -0.04378465
H        1.83294988       8.90544031      25.02802812       0.45144719      -0.25035863       1.45557617       0.01313766      -0.20733700       0.33654508
H        1.91295159       8.36360107      23.40301452      -0.28678263      -0.12462060      -0.30808982       0.04832942      -0.12187911       0.26554487
H        3.80201831      10.18233248      24.61827848       0.29774295       0.22481061      -0.21524249      -0.14376185       0.06354504       0.15712548
H        4.04970518       8.88903116      23.60758466      -0.05590004       0.33444855       0.02802328      -0.12244475       0.10702574       0.34043506
N       10.80461795      17.54952041      16.94705720      -0.46268935       0.54936570       2.41054730       0.20068760       0.07751600      -0.26700494
C       10.37557220      16.11029463      17.12295821       0.63012972      -0.60352404      -2.07238500      -0.69259208       0.49479777       0.74499587
H        9.98439216      15.76855336      18.09378089       0.00816092       0.78735322       0.00349587      -0.05286032       0.00551949       0.36484179
H       11.32139557      15.56228346      16.89847493      -0.60012300      -0.09796019       0.24940901      -0.25536784      -0.09538164       0.14239986
H        9.67799725      15.90458701      16.28443004       0.04384357      -0.04420393       0.52532140      -0.10121075       0.17488265       0.22985793
C        9.68659180      18.58199721      17.18477086       1.94281124       0.06373352      -0.59040668       0.31288933       0.50795437       1.44290781
H        9.41573687      18.55731372      18.21545246      -0.43117006      -0.21470808       0.82820461       0.06821471      -0.09281826      -0.05499480
H        8.93640748      18.34625338      16.48999624      -1.50702880      -0.58676490      -0.78178092       0.10480584       0.12644839       0.15486370
H       10.00448911      19.60201891      16.92077202       0.47280489      -0.30178851       0.10982547       0.07355832      -0.16401414      -0.41053762
H       11.29037300      17.72138752      16.04771303       0.00152016      -0.17683168       0.06008365       0.09495083       0.05734789      -0.11819147
H       11.49477089      17.63110350      17.73332675      -0.11869210       0.56151524      -0.83096521       0.14817763      -0.04947303       0.02583377
Pb      -0.20624816      13.40459721      20.04798553       0.11842965      -0.09756015      -0.08943141       0.68553447       2.49277514      -0.17220804
Pb       6.70419785      13.23295223      19.76754010       0.07796346       0.33151497       0.17832607      -1.91962386      -0.16493879       2.51389052
Pb       0.61567616      13.39139955      13.13020519      -0.08607152      -0.00380381       0.06626907       3.04043102      -0.65852286      -1.10206695
Pb       7.22587168      13.55836710      13.59652552      -0.01961747       0.29809229      -0.15699443      -1.35864348      -0.35911262      -1.85567144
I        3.68481510      13.49443697      20.01928389      -0.18079875       0.05145441      -0.01591741      -0.57316550       0.25707217      -1.93805431
I       10.41983875      13.42418116      19.94214156      -0.15065261       0.10303667      -0.10037513      -2.48432071      -1.40669101      -1.15576756
I        7.07351874      10.15950088      19.68937604       0.06835943      -0.20322875       0.06653882       0.28309940       0.45785054      -0.79417374
I        6.49237275      16.64017588      19.78406534      -0.01877973       0.21643334      -0.07325150       1.85893855      -0.38737303       1.23716114
I       10.32756388      13.28488165      13.95173217       0.14266661       0.15584937      -0.24532371       2.82507652       0.92665549      -0.10308908
I        3.46379769      13.93954894      26.65228858       0.05315029      -0.39846691       0.00454954       0.46107472       1.28406358      -0.23571827
I        7.21223583      16.61165669      26.34656090      -0.11173945       0.07296910      -0.18084983      -2.97084782      -3.28549639      -1.81748143
I        6.77170044      10.61314217      13.25309016       0.07855919      -0.26979881       0.17857574       0.07951198       1.35227458      -1.74159488
I       13.21393105      13.53788164      23.26400780      -0.03699364       0.06185326       0.12879597       2.59863268       1.49983551       1.89740299
I        0.52108402      13.25037395      16.80218156       0.05857285       0.15195086      -0.11289215      -1.19691211      -3.09026175       0.57928757
I        6.13127888      13.64761441      16.76337125       0.01767725      -0.12511566      -0.15345480      -1.54349234      -2.19499356      -0.48773488
I        7.11275756      13.22976879      23.16956221       0.12714566       0.01085499       0.10146749      -2.43141126       0.04330468       1.16228777
N       17.75686845      17.40365717       3.22287367      -1.02290317      -0.80614978       0.88705651       1.09264353      -0.23791968       0.21044769
C       17.34817579      16.66656453       2.00984356       2.03768429      -0.03607482      -0.79064555      -0.37844177      -0.97570627       0.94645823
H       16.42943254      17.06508147       1.64750837      -0.96902738       0.38543937      -0.23342159      -0.44057629      -0.06058447       0.01283217
H       17.24922177      15.62526943       2.26639883      -0.09340481      -0.63436880       0.08568573      -0.02109884       0.04819554       0.06827157
H       18.13811869      16.79636263       1.21805624      -0.61161438      -0.17262077       0.58344307      -0.24527791      -0.01833116      -0.12682152
C       16.58383103      17.30292557       4.21171239       0.57586564      -0.57669936       0.09218836       1.64405800       1.10739048       0.64482001
H       16.54085292      16.21455415       4.44923462      -0.62361278       0.49758833      -0.35582739      -0.06189220       0.18505415       0.36785899
H       15.67211901      17.74659013       3.68379237       1.03192038      -0.74400114       0.80766896      -0.05277347       0.01548044      -0.31205171
H       16.78252508      17.77437794       5.20072006       0.05840854       0.28945600      -0.74455480       0.04168751      -0.02055716      -0.11838181
H       17.80089988      18.35464433       2.97988870       0.28152456       2.26061106      -0.59539161       0.07639351       0.11285061      -0.05196632
H       18.73641986      17.21911291       3.53814007      -0.60478471      -0.46858233       0.30384828       0.04739949       0.03868307      -0.12487145
N        9.56343209      23.51493899       9.46692307       0.42276254       0.21381049      -0.66646427      -0.13610706      -0.03211375      -0.42852430
C       10.35569527      23.24343087      10.71109031       0.00030518       1.68298770       2.12564789      -0.14531239       0.53949248       0.87186009
H       10.64322191      22.18649649      10.96196270      -0.07299194       0.77461564      -0.94497541       0.09529772       0.16445288      -0.06428789
H        9.74160005      23.59596662      11.59697125       0.16578921      -0.60690358      -0.85136456      -0.26688939       0.11231756       0.07788803
H       11.18695955      24.01865241      10.78188773      -0.43485294      -1.20707960      -0.56852172       0.08670745      -0.08576444      -0.05804979
C       10.43492585      23.82587733       8.23181615       1.16891679       0.31094843       1.06321904       0.02192579       0.56459176       1.07593399
H       11.11774723      23.00482073       7.99126660      -0.37838490      -0.45073789       0.25505848      -0.02153273      -0.19983454       0.07041931
H       11.15467067      24.68857606       8.44354337      -1.25301868      -0.67422382       0.04550548       0.01343812       0.01779240      -0.13337233
H        9.79416334      24.03043611       7.39340472      -0.45050351       0.20595094      -0.35962408       0.03985883      -0.09550582       0.05899591
H        8.95701849      24.35807951       9.60991355       0.30651717      -0.38707948       0.06906490      -0.13234706      -0.17494610       0.10442249
H        8.89023411      22.74006040       9.28045379       0.36173305       0.15467389      -0.14378050      -0.18561144      -0.06746687      -0.05605546
Cs      10.22805542      17.27634409       9.34928004       0.08142020      -0.00589974       0.03466263      -1.72648660      -1.24793407      -0.64811162
N       16.58804472      24.72270664       2.55176785      -0.71431974      -0.43029012       1.68779935      -0.76222192       0.40807341      -0.23235680
C       16.76579136      24.53499784       4.07108037       0.50845479      -1.71816463      -1.61017436       0.22037128      -0.13283585       0.05184066
H       16.96774114      25.41737739       4.58595505       0.53015207       1.94297024       0.60851701      -0.27880828       0.08270231      -0.10385099
H       17.59311615      23.81049042       4.25788030      -0.44446868       0.39627628      -0.26013285       0.08975531       0.12486185       0.07601418
H       15.84553838      24.16106868       4.48168994      -0.64251694      -0.57749794       0.03949730      -0.13874384       0.10657814       0.11945803
C       16.90192805      23.46302895       1.82951221       0.53722148       1.40563871      -0.45751737      -1.13840979       0.33113738      -0.75644899
H       17.97936788      23.45268403       1.81019025       0.81553134      -0.42761170       0.08383254       0.16402428       0.28214161      -0.01936389
H       16.63065037      23.52988657       0.77155576      -0.64798192      -0.23892805       0.14437919      -0.08086604      -0.09182828      -0.15816627
H       16.55998734      22.68299678       2.45354948      -0.75301586      -1.25567019       0.22690690      -0.07662132       0.13166065      -0.13405312
H       17.24314918      25.41473213       2.21372861       0.63264570       0.95196580      -0.11439736       0.12063594      -0.22125826      -0.14614370
H       15.62742949      25.10568052       2.42594067       0.00077221      -0.14746174      -0.31810718      -0.09178937       0.09004301      -0.19060334
Pb       6.72534150      20.11455893       6.81209894      -0.16873920       0.12850144      -0.04005258       0.51329657       0.09870342       4.51207160
Pb      13.41529670      20.56472892       6.31367772       0.14976454      -0.06775319       0.54023369       1.67417264       0.82949207      -2.34626338
Pb       7.07248352      19.59902896       0.04399831       0.16471858       0.00227354      -0.20554835      -0.53862754      -0.46899721       0.85779763
Pb      13.96904846      20.26246465       0.15700436      -0.02206376       0.05170264      -0.14240321      -4.83704848      -2.90066186      -1.68693657
I       10.16329100      20.21623477       6.88375701      -0.07751320       0.10853057      -0.13204536      -0.14174398       0.74194741      -0.91793731
I       17.12488812      20.42993110       6.42425352      -0.07848204       0.14882866      -0.08355600       4.02479670       1.78602418      -2.48438129
I       13.68619288      16.73147216       6.59903473      -0.16442142       0.10709344       0.06494127       0.52688915       2.76954399      -2.44172932
I       14.15968154      23.57921798       6.69022776      -0.17683003      -0.04153902      -0.10531163      -2.00210526      -3.16668710       0.57061932
I       17.18257615      20.14116963      -0.13948464      -0.09241479      -0.11182328       0.01340305       1.25573441       1.93631594       1.37642600
I        9.74090959      19.83854910      12.45691073      -0.09677458      -0.01344463       0.04364874       1.38675586      -2.21803035      -2.90918217
I       13.19170722      23.55760831      13.56262740       0.19187846      -0.44489960      -0.07767814       0.82509900      -1.05398205      -2.17982121
I       13.35982518      17.13014656       0.18621617      -0.05142084      -0.37449487       0.05324717      -1.27597842      -0.44485638       0.70263440
I       20.04996623      20.40054826       9.68460518       0.07138968      -0.09038853       0.17496944      -1.62233209       1.66611268       3.03560081
I        7.46344563      19.65518731       3.29825376      -0.26279585       0.26053268      -0.04874838      -0.62404472       1.73578354      -0.10651334
I       13.45243030      20.66723516       3.33629723       0.09066316      -0.06548068      -0.25370359      -0.06795169      -0.63725366       1.26855994
I       13.18335522      20.21087067       9.65055816      -0.17350355      -0.23700945       0.02148417      -1.77809804       1.15309214       1.07383526
N       18.28924005      17.27694256      16.33327945      -2.68269231      -0.36260200      -0.05586065      -0.35114823       0.69344583      -0.28492702
C       17.21891366      17.15099459      17.43974376       0.32502068      -0.22657262       1.15058765       0.25729809      -0.50966542      -0.24614588
H       16.47013890      18.00108239      17.48559773       0.89020666      -0.54411570      -0.61547436      -0.02313280       0.01652558      -0.06861559
H       17.75612229      17.17662547      18.46131556      -0.71916362      -0.41972939      -1.40767070      -0.21942729       0.03606709      -0.07983825
H       16.63580647      16.20407701      17.23831290       0.68492468       0.73547021       0.36759478      -0.20873054       0.01601760       0.01460175
C       17.58319079      17.31050672      15.00063573       1.37442328       0.00815487       0.31615317       0.03041578      -0.23378943      -0.48345524
H       17.35336883      16.29465987      14.80620362      -0.54522571      -1.13993756      -0.38773218       0.03928003       0.06022586       0.24306497
H       18.26479531      17.65491403      14.21134516      -0.08974002       0.16313939       0.20562725       0.10820824       0.06138590       0.18041282
H       16.68407623      17.88409138      15.08303399      -0.51138391       0.66410724       0.02860574      -0.15880879       0.06956113      -0.21204202
H       18.92978549      16.48066568      16.33032816       0.32941490      -0.22034504       0.32763876      -0.31102305       0.23168146      -0.03241383
H       18.79531601      18.12249178      16.47100754       1.07942127       1.27704546       0.23052074      -0.13237385       0.21245370      -0.02849843
N        9.97340548      23.73657648      23.61659692      -1.05522784      -0.06180107      -2.51483620       0.33228440       0.89242690      -0.72149445
C       11.15029547      23.57769467      22.65575694      -0.85950356       0.11338190       0.74861175       0.06002274       0.48792060      -0.74247268
H       12.02455559      23.95088779      23.22769929      -0.08856977      -0.28463139      -0.77596332      -0.09488834      -0.02124814      -0.17345152
H       10.79047518      24.18707971      21.81964887       0.85347472       0.22714650      -0.15326129       0.04614304       0.23742953      -0.13926748
H       11.18515373      22.53302446      22.29156372       0.19018355       0.30536478       0.47588453      -0.02741324      -0.01193316      -0.29429555
C        8.69726149      23.28703276      22.84046411       1.53726209       0.08240891      -0.98949244      -0.14050005      -0.89402584      -0.02205354
H        8.60257572      23.88157421      21.88939181       0.53778611      -0.37269460       0.67318221       0.12823382       0.09931342      -0.00594645
H        7.77658944      23.48420739      23.34652719      -0.50060227      -0.09251877       1.02919244       0.25994015       0.23980775       0.13710944