320
Lattice="25.352641871473693 -0.19300467237120617 0.3309153819224784 -0.09527057953025761 25.366554286939685 0.0978349271452124 0.14096109695444328 0.1592710459470778 25.378906377367933" Properties=species:S:1:pos:R:3:forces:R:3:momenta:R:3 energy=-902.6088256835938 stress="0.0006017789128236472 -0.00025996123440563673 0.0002742953656706959 -0.00025996123440563673 0.0009984909556806087 2.7047868570662104e-05 0.0002742953656706959 2.7047868570662104e-05 0.00010396676952950655" pbc="T T T"
Cs       9.14002629       9.66288550       3.53955727       0.04643653       0.05221608       0.00662934       1.90204722      -0.05789658      -1.92312519
Cs       3.62538827      16.48635576       9.82826528      -0.01508966       0.28497678      -0.36106201       2.20559742       0.43303355      -0.48177832
Cs       3.27419703      10.19433019       9.69896030      -0.09536610       0.08054780      -0.01908150       2.71783713       1.80446833      -1.02819473
Cs       9.46673188      15.77751866       3.83559622      -0.23021757       0.05757296      -0.20005506       2.36542086       1.30869959      -1.12849027
Pb       0.00120596      13.31662490       6.85178804      -0.36352639      -0.10219995      -0.08282406      -0.00356421       1.69253517      -1.23450682
Pb       6.12859538      13.00280108       6.74395489       0.05549501      -0.08077989      -0.24773595       1.54789626       0.97465102       1.60820897
Pb      -0.32417395      13.12763527       0.37845457       0.09499286      -0.14230837       0.02906347      -0.30234581      -0.91631458      -1.59959054
Pb       6.04571515      12.79412036       0.21341779       0.02024113       0.25164760       0.05794090      -1.26759648      -0.73568309       0.32179905
I        2.98680229      13.58661583       6.86080208       0.33333632       0.13537994       0.13649649       1.10022531      -2.14455151       2.50401351
I        9.34711084      12.63922855       6.31069505      -0.07638264      -0.11415925      -0.09917226       0.28071200       1.68526962      -0.42159513
I        5.55408704       9.70428959       5.89712098       0.23894026       0.25551189       0.20514236      -0.73116777      -0.08384110      -0.20259425
I        6.56115732      16.21328201       6.47189335       0.03342473      -0.13167362       0.16077012      -2.28279939       1.70556896      -1.03419173
I        9.19978398      12.29691987       0.50159332       0.18220515      -0.05726689       0.16198548       1.48214087      -0.43372168       0.91088998
I        3.22497022      13.70823888      11.85163283       0.05722252      -0.19575536       0.34687116      -1.84669650       1.09823155      -1.54609819
I        7.22090562      16.41163426      13.08601301      -0.20120736      -0.35350161      -0.30012060       0.15981140       0.77085709       0.86743702
I        5.54012246       9.76609505       0.48493332      -0.06560936      -0.17230278      -0.06342450       0.39352572      -4.03636055       0.34654099
I       12.02901828      13.50625212       9.80551414       0.06269344      -0.12855210      -0.07737685       1.07157569      -3.97966956      -0.67264480
I       -0.08120288      12.84585648       3.65061882       0.09155826      -0.00551816      -0.06396650      -1.29695538       1.02075734       1.64173950
I        5.59047229      12.70801843       3.33648205       0.08861859       0.16845658       0.12955845       0.00487910      -2.89686525      -1.07721382
I        6.31482329      12.33049848       9.74728208       0.21963808       0.09423808      -0.03731791      -0.33083402      -1.21292558      -1.18886245
Cs       9.35523316       9.53383012      16.83747087       0.04447313      -0.04744006      -0.21355466       0.15951881       1.77138548       2.01356391
Cs       2.83477871      16.43434338      22.61254026       0.13425262      -0.19039916      -0.19773685      -3.00395226       0.45620896      -2.63206575
Cs       3.68286518      10.83238511      22.27763253      -0.06629125      -0.14391216       0.03113253      -3.34891241       3.43451778      -0.48187881
Cs       9.57194238      15.18464872      15.57667583      -0.02680323       0.10933360       0.54431823       1.15004706       1.62197456       0.54428700
Pb       0.10520389      13.01838438      19.56699135      -0.07211633       0.21794771      -0.41996688       0.61576570      -4.23176933       3.69393995
Pb       6.42440146      12.87277997      19.16077445      -0.12922254       0.27807041       0.09288092      -1.95022982       0.44384757       0.07489649
Pb       0.05670953      13.67195528      12.81128878       0.15114130      -0.09116165       0.33812451      -1.91193880      -3.45890429       4.03229194
Pb       6.13922733      13.01381290      13.03236752       0.15335975       0.06898245      -0.27341382      -0.97029297      -0.45438832       1.80393348
I        3.04934292      13.93100176      19.36038620       0.06355828      -0.17589681       0.20004492       1.68662183       1.57361463      -1.08480702
I        9.50294103      12.62446917      18.85271281      -0.28600647       0.08053180      -0.14050476      -0.90901620       1.45891540      -1.16382152
I        6.03557113       9.66010895      18.72235211       0.03316013       0.13234465       0.30107295      -1.32332112       1.20029451      -0.94526718
I        6.46865953      16.17838238      19.46181270       0.07795572      -0.09681361      -0.01316081       1.53843671       1.16309367       1.31036254
I        9.72951064      12.23242225      13.53447886      -0.04196611      -0.13629920      -0.10104030       0.06169135       0.28798975       1.68413308
I        3.09251158      13.43177982      25.10826573      -0.00772496       0.10706519      -0.02435165      -1.59710831       2.43909995      -3.08993532
I        6.24570436      16.35278179      25.56760762       0.08824382      -0.21253919      -0.04144987      -1.69031440       1.89951795       0.89882555
I        6.13556490       9.90251309      13.10809384      -0.17498931       0.20514822       0.03295420      -2.48017174       1.50283699       0.84936774
I       11.75940154      13.86415118      22.22473362      -0.07815796      -0.01352690       0.57899150      -1.35083852       3.47844866      -1.49848965
I        0.12402095      12.71036144      16.19039219       0.12556803       0.02408452      -0.09539433       1.46158473       1.53948420       3.74895846
I        5.34800470      12.70848405      15.92680555       0.03315894       0.09985645       0.25268814       1.84621622      -0.00551299      -1.53085701
I        6.96187808      12.82642106      22.43691470      -0.08717695       0.00157007      -0.25180490       1.46970374       2.29594461      -0.70895019
Cs      15.34038852      15.55893955       3.23591294       0.07220828       0.19154258       0.07889590       1.88468249      -0.36460856       0.76647912
Cs       9.51133415      22.73403936      10.11300463      -0.05816478      -0.12646837      -0.03037055       4.46960048       1.06266753      -0.28590719
Cs       9.33661035      17.02692752       9.69438386       0.03980204      -0.10744777      -0.09404739      -2.26900187       4.27753248      -0.78557320
Cs      15.31056844      22.04902040       3.13913922      -0.04861485       0.10460767      -0.10998777      -1.68165731       0.03734325       1.77081025
Pb       6.04726691      19.42732091       6.07996555      -0.05162538      -0.02170045       0.24284367       2.25092541       1.60387664      -0.24514683
Pb      12.40661475      19.61335064       6.14735780       0.18016369      -0.37117019       0.00450841       0.83042673      -0.88421613      -4.12681167
Pb       6.02057934      19.33263107      -0.20463250       0.05822904      -0.03978822       0.17794568       0.45719569       1.14626633       1.09064253
Pb      12.24183107      19.27104639       0.27307517       0.09386354      -0.31880913      -0.28184502       0.23431306      -0.80853137      -0.78099160
I        9.61557710      20.05328016       7.02091862      -0.64491645       0.01723483       0.16128494       2.06680390      -4.55703619       0.04093493
I       15.43109787      19.14714722       5.44630216       0.37955405      -0.19761323       0.05738893       0.93396456       0.40175514      -2.57061943
I       12.17326460      16.20174431       6.06985187       0.11611547      -0.10063690       0.05775622      -0.74839723      -1.58144618       0.05594053
I       13.31062959      22.42088250       7.03662126       0.15134579       0.03921542       0.06761227       1.58132214       0.68699074      -0.46467116
I       15.70224776      18.38507400       0.33006116      -0.17420141       0.07355568       0.03367260       1.93070236       1.05374282      -1.03726986
I        9.44873150      19.76165835      12.63465165      -0.31206586       0.25786626      -0.07373465      -3.01496827      -0.22785634      -0.87877722
I       13.32063857      22.46457906      13.00259026       0.15943476      -0.29306668      -0.09203890      -1.56249367       0.49950238      -1.28169475
I       11.63072843      16.07976877       0.68600079      -0.00404890      -0.13274724       0.04860333      -0.99167101       0.17168408       0.49945703
I       18.86079462      19.63314799       9.83197093      -0.18747866       0.12952461      -0.13861100      -2.30381649       0.11189311       0.73936578
I        6.78062428      19.00528300       3.22770887       0.11257947       0.00861082      -0.28538837      -1.33475344      -0.98220569       2.24921748
I       11.35907863      20.01112927       3.11706711       0.11143819       0.03051078       0.19733523      -1.71044253      -1.09416701       0.08363144
I       12.78464662      18.53333977       9.64101022      -0.00736283       0.27537961       0.04349022      -1.00515362      -0.75572789      -2.69943259
Cs      15.76818732      16.33987531      16.08992372      -0.10288126      -0.20425207       0.12903931      -0.17771647       1.30223366       1.72346834
Cs       9.55480960      22.57197383      22.19500497       0.04351797       0.10984412      -0.07726445      -1.40269734      -1.94614984       0.37458347
Cs       8.74938698      16.57714060      22.63807850       0.17182335      -0.04146486      -0.10523110      -0.12775493      -2.32399025       1.03760280
Cs      15.67315064      22.31234339      16.40654936      -0.15601520      -0.04727923      -0.01702240       2.03790134       0.84579364       0.06112774
Pb       6.00895472      19.62498910      18.88823445       0.04890316      -0.44685128       0.35638502      -2.74182587       2.27176438      -0.00932684
Pb      12.54430351      19.17233383      19.27164862      -0.02751193       0.02289609       0.06954334      -0.39337310       5.61620318      -2.39704152
Pb       6.32877648      19.26535026      12.66185862      -0.32516710       0.27917687       0.15632868       0.10690656       3.47568415      -0.93920818
Pb      12.37756709      19.34794597      12.87294120       0.46813891      -0.17499808       0.03925724       1.00821986       3.31357546       3.86626465
I        9.36390130      19.71914202      19.44282260      -0.04372989       0.03675735       0.04001800      -1.27342659       0.92681068       2.74267795
I       15.86654002      18.37371977      19.08933682      -0.15554925       0.05665102       0.13543769       1.37720368       0.05046686       1.10192552
I       12.05025766      16.07595919      18.72322876      -0.00884668       0.17007606      -0.20998672       1.78947909       1.60780810      -0.02195686
I       12.94640413      22.45223627      20.13655129       0.02407447      -0.03209347      -0.07105721      -0.61431028       4.39018322      -0.48875518
I       15.68495796      18.38656233      13.13427744      -0.02681078       0.22222895      -0.10621963      -1.46277678       0.28067058      -3.65331757
I        9.27499036      19.93750233      24.66342312       0.02203720      -0.09492053       0.17526150       2.63315702      -2.33276173      -0.50218887
I       13.19543968      22.25672686      24.79346861       0.06277257       0.32911829       0.02600171      -0.18828205       0.44982568       0.67183914
I       11.84960520      16.09995216      13.07369773       0.25951939       0.01664989      -0.07626724       2.38066383       2.19999435       1.90869849
I       18.77459911      19.65988076      22.33866381      -0.03954344      -0.04157709       0.27902614       1.76017472       0.56962168      -0.29689770
I        6.40730111      18.90886496      16.02207767       0.09500154       0.08130197      -0.44788021       0.32746732      -2.30670413       1.15477873
I       12.17556377      19.74678779      16.17939473       0.09001188       0.03769761      -0.25399742      -0.07409356      -1.13538766      -2.19082567
I       12.54565188      18.73834340      22.34798890       0.05081284      -0.11912481       0.15867129      -0.21019471       0.10292578      -0.44712116
Cs       8.83945660      22.72906051       3.62663214      -0.07914399      -0.07236149      -0.22949270       1.93103100       1.15115609       0.16865194
Cs       3.52315486       4.08205086       9.88793634      -0.17427173      -0.42421434       0.02950977      -3.18650208       0.00928026      -3.24773853
Cs       3.01803276      22.46002269       9.31634417       0.05626135       0.12815842       0.03750389      -0.40284198       1.34838525       1.69907361
Cs       9.22106218       3.66538507       3.52140970       0.05943883      -0.14551158      -0.04614886      -0.81778795       1.12489302       1.82472475
Pb      -0.01590258       1.09351446       6.28550697       0.07929829      -0.10148732       0.00348380      -0.98872737      -0.42653465       0.82780128
Pb       6.33029823       0.23567727       6.89280301      -0.12987717       0.05581924      -0.57134257       2.85938958      -3.09906378       1.09756931
Pb      -0.21762236       0.48527143       0.02099507       0.04982239       0.05372433       0.01352636      -1.67381653      -1.07977293       0.75466408
Pb       6.24134413       0.01802781      -0.13057801       0.10801843       0.16226035       0.14730263       3.43188794       2.07034855       0.99150855
I        2.99645868       1.62583836       7.03203754      -0.06978520      -0.15279966      -0.16976864       3.27337111      -2.22611815      -3.71461103
I        9.32113594      24.63925010       6.61137594      -0.05254422       0.22184255       0.16048592      -3.47826357       1.14958899       1.21664555
I        5.42867729      22.45510280       5.66312632      -0.04301663       0.09575186       0.19256530       0.73914481       1.45275592      -0.80291886
I        6.76893382       3.26607399       7.02329699       0.19725292       0.19223745      -0.01011710      -0.47556741       0.56312727      -2.34010506
I        9.24078744      24.90982553       0.40082489       0.16354080      -0.06714584       0.02874143       0.13812076      -2.15681690       1.02262070
I        3.19710240       1.00869653      12.21740553       0.06174631       0.10412069      -0.00107886      -0.97518391       0.31453927      -0.50822725
I        6.95532443       3.99965923      12.66691360      -0.02699481      -0.33305625      -0.14999681       0.58527598       1.47973927      -0.70837838
I        5.16478758      22.22548575       0.45350675       0.17816252       0.35325085      -0.13661196      -0.47654337       2.38397701       2.85079501
I       12.23787389       0.00578612       9.76187732       0.03162806       0.08465304       0.01720203       0.47095722       0.45463983       0.45070662
I        0.34850487      26.28866325       3.29356387       0.07636130      -0.04651018      -0.16200511      -0.42058456      -1.00172731       1.18583459
I        6.25386942       0.46082580       3.61311892      -0.02209812       0.15371686      -0.28246264       0.85870698       3.61595553       2.33703974
I        6.28145864      25.07244950       9.92910790       0.08834813      -0.14941640       0.15539312       0.61019675       2.27116046       0.51719096
Cs       9.26128907      22.37937440      16.49505296       0.06236352      -0.05014470      -0.13693248       1.87903464       2.14127703      -0.67896055
Cs       2.92266417       3.96710432      22.53410697       0.02213825      -0.05701590      -0.08163592       2.39937371       3.40279111      -0.24475281
Cs       3.34748514      22.73646685      22.21451077      -0.18960673       0.18595081       0.06636519      -0.95229524      -1.90520977       2.61890061
Cs       8.72943846       3.47415270      16.78411330       0.10030658       0.00538104      -0.20257959      -0.25964668      -1.40379166      -1.96113432
Pb      -0.16586026       0.69101544      19.13427866       0.17181704      -0.13573836      -0.11605685      -0.21360201      -1.21846174      -3.42357486
Pb       6.05763295       0.43241729      19.29945257      -0.00750796      -0.09977437      -0.15292355       0.35114682      -4.55150999       0.95831698
Pb      -0.06221838       0.37228413      12.34806477       0.27604950       0.09006435       0.36171517      -3.61589430      -1.22179877      -1.10478401
Pb       6.28612503       0.53627957      12.82173934      -0.04276262      -0.03790555       0.24702858       2.44615135       6.26132000       2.01869607
I        2.95162874       0.96713405      19.79746464      -0.05619924      -0.06744304      -0.00332128      -1.29385029       0.06231652      -0.74221165
I        9.18442655      25.13956855      18.98972334       0.23487308       0.16051196      -0.08482387       3.50573888       1.40843558       0.59193915
I        5.91981820      22.63559950      18.58480477      -0.11623601       0.09384932      -0.03295632      -2.62765741       4.14300884       0.32194256
I        6.30024382       3.36760530      20.08864284      -0.18128077       0.46579654      -0.28859421       2.04556946      -0.25665120      -1.80496539
I        9.75449535      24.68526956      13.45543105      -0.54154101      -0.02829791       0.04157563      -2.86681925       2.01874209      -1.37551450
I        3.27735155       0.74858994      24.83345123      -0.10408944       0.12760988      -0.00617246       0.67369216      -1.54408158      -1.07598981
I        6.87842896       3.55419224      25.57624696      -0.11792122      -0.16838026       0.03778090       0.72368054       2.35982461      -3.54365818
I        5.38962448      22.92386290      13.34895047       0.15542744      -0.15504166      -0.01468161      -0.26190109      -1.43130648       1.12464459
I       12.17183505       1.47745789      22.09411623       0.03745138      -0.04005068       0.51061867      -1.67188401       4.45614013      -0.27467366
I        0.32510187      25.55263139      15.95819847       0.02702289      -0.01927889       0.05248006      -3.96497265      -1.80708944      -0.02912055
I        5.76369010       0.96355215      16.03110735       0.08501322       0.04565450       0.07104069      -0.84778207      -0.60464700      -1.08921577
I        7.22416352      25.77670061      22.35077197      -0.20266958      -0.35756790       0.28348771       0.51127736      -2.40126118       0.70968235
Cs      15.57146426       3.32904965       3.39898127      -0.01748474      -0.04561546      -0.17347348      -1.16290650       0.05203899       2.61629666
Cs       9.58503091      10.32167318       9.58716067       0.14272505       0.21626713       0.23802754       0.98575848      -0.20010167       1.81373371
Cs       9.70370324       2.97945526       9.77359275      -0.14046455       0.04115826       0.07838743       4.05648673       3.14800860      -1.43788966
Cs      15.59165531       9.05778533       3.16104747       0.03868397       0.09041141      -0.00032522       2.86177862      -0.37456472      -0.25314782
Pb       6.37917471       6.67900109       6.30784591      -0.18842061      -0.12714790       0.09669620      -3.15632472       2.28645078      -0.39353326
Pb      12.29198015       6.58931844       6.87856084       0.07541680       0.00145663      -0.19340333      -2.27046145       2.73644526      -1.87680122
Pb       5.96258571       6.70650531       0.04615406       0.01821556      -0.16316755      -0.12243586       0.71768611      -4.21615158       0.64929700
Pb      12.15227232       6.53960849       0.14261976       0.20490949      -0.19962319      -0.09578312      -1.00481061       1.21478429       0.32975203
I        9.00468891       7.54694651       7.49034740       0.62494754      -0.11763935      -0.04167077       3.41792115       1.65721072       0.47989763
I       15.40239178       6.25652200       5.68370088       0.04153410      -0.16571440       0.24624478      -2.40731438      -2.58558009      -0.01761629
I       11.85771758       3.41705015       6.86504898       0.00828370      -0.00793560      -0.21455914       0.42135027       2.98714461       1.30630983
I       13.28451424       9.59264864       6.32078704      -0.13248116       0.26712448       0.14951829       0.20495254       3.65110465       1.39100281
I       15.94052989       6.37641950       0.40127203      -0.33914137      -0.05528533       0.11500145       1.18812799      -0.96115943       2.29966165
I        9.65359725       7.58962619      12.41318221       0.04508626      -0.01226259      -0.15479033       0.78621497       0.20780322      -0.22942252
I       13.21280391       9.54824555      12.15199449       0.08319021       0.27531898       0.21821542      -2.41815981      -3.24944419       0.68923246
I       12.11483354       3.03669525       0.48572399       0.02445216       0.24425302       0.15040486      -0.06862798       0.74156898      -0.31359748
I       18.54819961       6.94843335       9.76236201      -0.05689290       0.04935245      -0.22482934      -0.34011550       2.81165216       0.46801557
I        6.78761246       6.70673544       3.23179203       0.18390066      -0.13431995      -0.30885811      -3.50997592       0.77466810       1.08768623
I       11.88594071       6.56859800       3.44970908      -0.13088296       0.03766708      -0.09488660      -1.93096519      -1.00200951       2.03952589
I       13.54855014       6.51457540       9.78290768      -0.14247946      -0.13409855      -0.15368554       1.03962247      -1.59178901       3.18252697
Cs      15.38465414       3.04137253      15.54116556       0.02012685      -0.07388206       0.07727089       2.12508141      -1.19040118       7.16506210
Cs       9.68196834      10.08584982      22.66172519      -0.02678690      -0.07218142      -0.10933072      -1.23785095       0.17475505      -0.56999111
Cs       9.08619670       3.64854380      22.18780108       0.33548409       0.18270921       0.32816934       0.76869667       2.07704700       2.13076814
Cs      15.46892952       9.40360586      15.88742305       0.05847325      -0.15977694      -0.03495476      -5.00968169       0.40947266       3.13028143
Pb       5.97381801       6.49105401      18.92408468       0.09233770       0.00721388       0.07741410      -5.21796488      -6.89149204       1.33133064
Pb      12.37324612       6.55063292      19.05105863       0.19112621      -0.10766072       0.31874951      -0.23934959       3.42296941       0.62024926
Pb       6.63177417       7.10575286      11.98992946      -0.08342065      -0.30080728       0.14469197      -0.38049516      -1.39718538      -0.91954001
Pb      12.49756123       6.34295794      12.80904614       0.07922138      -0.00594326       0.01206781       0.12750051      -0.62463607       2.93353856
I        9.22599543       6.72771228      19.70445219       0.19652429      -0.05257903      -0.03286181       0.51885886      -1.88384421      -1.04339526
I       15.77400855       6.02811185      17.89751857       0.09673103       0.09464747       0.22266167      -1.21528316       1.48917020       3.51050981
I       12.52199228       3.33104096      18.37938826      -0.12639013       0.23453038       0.01689837      -0.46835814      -1.20951455      -1.39042004
I       12.53001968       9.96377730      19.81542935       0.02781695      -0.56889627       0.04382203       0.36154645      -3.52045825       1.91115379
I       15.78279447       5.88361658      13.24214194      -0.02302707       0.08343793       0.01470959      -1.64051045       1.99650312      -0.88038999
I        9.30776392       6.66687029      24.77966841       0.13560265       0.18468721      -0.01032720      -1.53090386       1.12871993      -0.76915388
I       12.84203768       9.83710959      24.82709773      -0.07618724      -0.05294987       0.15084891       1.54026191       0.14056310       0.76343011
I       11.38509777       3.14455624      13.08012286       0.17567954       0.28298314       0.12202667       2.59076121      -2.14132586       1.88154430
I       18.39174705       7.17166565      22.33807315       0.11022286      -0.12455312      -0.15569759      -1.74248263      -0.22822537      -3.21938146
I        6.81437101       6.72787641      15.55616358      -0.08445507      -0.08980283       0.33475053      -0.73444817       0.43746237       2.00297920
I       11.92302046       6.76899728      16.10225988      -0.01430808       0.09978214      -0.25622246      -1.11518121       2.38542007       0.01425168
I       13.29393519       6.08370316      22.52273828      -0.10814662       0.04472023      -0.10338313      -0.54317317       2.67330754      -1.28565904
Cs      21.98463801      10.04185837       4.16837125       0.02452893       0.13713838      -0.27909467      -2.11338063      -1.47436435      -0.14545729
Cs      15.54668501      16.10989876       9.99218898       0.06147500       0.01105398      -0.17131301       0.50103746       0.24318940      -2.37614204
Cs      15.90017628       9.57874985       9.38887287      -0.02612498       0.12009963       0.01137095       4.76362729      -0.63969024      -0.64392821
Cs      22.37918534      16.35709165       3.95523179      -0.23566024      -0.19980324       0.02104176      -0.57087391       1.57950559       1.57296316
Pb      12.46995602      12.91642646       6.43329242       0.27087723       0.07185802       0.12791092       0.45569083       0.63804041       1.17202013
Pb      18.89051032      13.01421018       6.79071300      -0.18713748       0.08345275       0.25166513      -1.81733453       5.01462281      -0.98229660
Pb      12.25647566      12.74434670       0.10150450       0.07101565       0.28006759       0.01092679       0.99155164       0.60920265      -0.60606021
Pb      18.67831945      12.72670939       0.29825101       0.26962504      -0.08926709       0.20993668      -2.25341633      -0.71047011      -2.54410163
I       15.58517689      13.69383458       7.12874282      -0.00631401      -0.15000628      -0.13783266      -1.01455033       0.35903021       1.93228357
I       22.00043600      13.00968620       6.74735375      -0.03394809      -0.05779764       0.04210437      -1.22200736      -2.90493320       1.28128463
I       18.34605358       9.68900970       6.32145215      -0.06443845       0.11887843      -0.00552072      -4.63665522      -1.18729785       0.34893002
I       18.87383948      16.28834077       7.58108456       0.00912445      -0.00553657      -0.23658251      -0.06411569       4.57660182       0.64400432
I       22.00274738      12.60999518       0.98717466      -0.23032820      -0.08247392      -0.07740344       1.20522539       0.06842140      -4.35788646
I       16.00678726      14.13862224      13.01694922      -0.28079375      -0.15942623       0.09167206       1.24890470       3.18621966       1.90942776
I       20.13468190      16.32456559      12.44299009      -0.38289298      -0.10632369       0.27906098      -0.20833905      -0.78349396       1.32684520
I       19.01294354       9.49056005       0.84934042      -0.20170310       0.12070284      -0.02030041      -0.93505492      -1.37484463      -0.54188632
I       24.65658373      13.59517469      10.23864355      -0.05663335       0.14493432      -0.25011927       0.63644407      -1.23254063       0.62090916
I       13.07335241      12.55239896       3.22680958      -0.14791709      -0.08742054       0.03060010      -1.76764595      -0.11177614       2.19626513
I       18.80067580      12.85689145       3.76602165      -0.10199267       0.14685714      -0.23803802      -1.01840511      -1.82558972      -1.37549499
I       18.75057709      12.66361196      10.22593957       0.08130786      -0.18738730      -0.17922884      -1.60738394       2.74260372       1.24811790
Cs      22.03960648       9.95325684      15.35761337       0.00602824      -0.26355901       0.22457631       0.40442192       0.04868495       0.59383514
Cs      16.47182699      15.94931119      22.34305953       0.02617012       0.21523938       0.09655545      -1.79113276      -0.26511486       0.99332648
Cs      16.07701492      10.01409706      23.04899222       0.00568036      -0.02956004      -0.15354091      -1.60478677       3.66744975       1.78052077
Cs      22.31029950      15.34833925      16.67221146      -0.18594569      -0.02235791       0.17942864       2.25334455       1.00532398       0.79530889
Pb      12.51232235      13.00182502      19.48103688       0.48118918       0.13402471      -0.23333302       1.60404618      -1.85237927       1.92791370
Pb      19.27493585      12.55828043      19.25119066      -0.18045991       0.35216800       0.23392267       0.97169927       1.82800111       1.94437679
Pb      12.82206600      12.81265850      12.99648301      -0.15527339      -0.05039842      -0.08330860      -0.95112246      -1.11494154       3.74655503
Pb      18.86151199      13.29727470      13.34211588       0.33351361      -0.06039746      -0.30501163       1.03052505       6.11007500      -0.23025905
I       15.81744833      13.02919152      20.33256365      -0.13297643       0.09526783      -0.14062348      -1.27367849      -1.71375960      -0.15468598