960
Lattice="27.063010001834083 -0.32536862523301113 0.0087705804128981 -0.14810187749733866 27.607400852382654 -0.03938169410732819 -0.016981084784113254 -0.0933629389058639 26.827834797083053" Properties=species:S:1:pos:R:3:forces:R:3:momenta:R:3 energy=-4267.40234375 stress="0.0016595344059169292 -5.15261626787833e-06 0.0006945968489162625 -5.15261626787833e-06 0.0023419710341840987 -0.0005150062497705221 0.0006945968489162625 -0.0005150062497705221 0.0011741783237084746" pbc="T T T"
N       11.46079379       9.97144958       3.12429500       1.64110494      -1.66752269      -0.92465910      -0.39630571       0.61091397      -0.80394979
C       10.17445164      10.55066563       3.36269567      -2.02859390       0.07876211       0.00528236       0.79224932       0.12712669       0.25950484
H       10.08722751      11.16352592       4.23986433       0.48209431       0.50540239       0.62726074      -0.06437297      -0.23645959       0.10975276
H        9.39071239       9.79293682       3.47042391       0.23864341      -0.51270938       0.08740942       0.05972018       0.03532842       0.10094527
H        9.84576627      11.08846665       2.49866515      -0.02387345       0.80624968      -0.67103585       0.03925158      -0.03579946      -0.07035119
C       11.75024471       8.78314685       4.02357351      -0.52180609       0.45019874      -1.13372491       0.05331670      -0.06281027      -0.00805381
H       12.74884904       8.46356518       3.73862291      -0.03239703      -0.78728972      -0.24198806      -0.12169289       0.21173536      -0.00684626
H       10.88927419       8.11710401       3.92028309       0.39017141      -0.43812860      -0.26482269      -0.16582163       0.14350905       0.37316400
H       11.80567821       9.05756085       5.04879136      -0.12198065       0.84716955       1.07456479       0.05576464      -0.00056043       0.23945545
H       12.27142001      10.59539091       3.28947524      -0.29047437       0.56780432      -0.25768344       0.34173484      -0.12179002       0.08508911
H       11.52442562       9.66917193       2.06861885       0.07270195       0.38263866       1.67168591      -0.00176490       0.12654664      -0.04181288
N        3.01440674      15.91074054       9.97036833       0.17129491      -1.94690780      -1.59554821      -0.32176843       0.28325435      -0.09729404
C        1.73897705      16.60866373      10.19838467       0.39697577       0.07282134      -1.43307969      -0.12693042       0.51990111      -0.21939806
H        0.87748061      16.01064505      10.01097667      -0.61624066      -1.03625945       0.05806309       0.27734395       0.33759855      -0.00911250
H        1.74594989      17.30412530       9.35624375      -0.46776929       0.77247234       0.27799498      -0.15858852       0.19024350      -0.07241826
H        1.67366550      17.06743031      11.14461198       0.14102053       0.71190816       1.28525543       0.04315072       0.24483130      -0.38961128
C        4.12526739      16.90265661       9.99542206      -0.45402256       0.07640975      -1.87637060       0.13467284      -0.01520994       0.70378954
H        5.11386252      16.43647110       9.88202271      -0.15643665      -0.07999573      -0.09874208      -0.30549635       0.09636772       0.21345968
H        4.04286111      17.36404666      10.95461361       0.19366365       0.83862530       0.79063794       0.28566907      -0.02105312       0.11136561
H        3.89211889      17.61305890       9.13442052       0.61282108      -0.45791577       1.08634126      -0.08532662       0.13238576      -0.32320847
H        2.85334701      15.43826999       8.98434966       0.88064148       0.59334750       1.12103842      -0.19611764      -0.11741398      -0.13765645
H        3.28227366      15.09085346      10.56149802      -0.57232590       0.41671057       0.33998352       0.06269000       0.04795063      -0.10002294
N        4.38271529      10.62324337      10.71417730      -0.49410310       0.45258723       0.24053822       0.34810083      -0.27398488      -0.11115062
C        4.46963904       9.62073988       9.65654995      -1.56615396      -0.64753084      -1.58897227       0.93112431       0.63532886       0.53277270
H        5.34150863       8.99857353       9.74329676       0.63792750      -0.26553717       0.14874790      -0.38354408       0.20239313      -0.08495980
H        4.43582731      10.10074007       8.65921192       0.34162274       0.17000090       0.30427685       0.06858473      -0.14403475       0.04144991
H        3.56614784       8.96339881       9.61298997       0.39479016       0.27616171       0.61442886      -0.28140303       0.11698337      -0.00554976
C        2.98706793      11.22761813      10.87557688       1.16345976       0.18361305      -0.27332398       0.20152200      -0.45450308       0.65696815
H        3.04677313      12.12737496      11.51934038      -0.03865755      -0.49187188       0.11949703       0.14273363      -0.16336750       0.05489009
H        2.31548835      10.44477171      11.25459270       0.01437408       0.19041008      -0.12089347       0.07205297       0.34732296      -0.06036656
H        2.73316377      11.59196058       9.87869588      -0.37940203      -0.21606537      -0.20630023       0.07645616       0.17296669      -0.07871477
H        5.07620723      11.35664150      10.46880259      -0.14907648       0.17756614       0.32672872      -0.07146267       0.30663104      -0.08972129
H        4.71550896      10.20610868      11.61643755       0.02007305       0.12974429       0.12619447      -0.21143994       0.09096157       0.00520529
N        9.17376448      17.06181027       4.03215863      -0.60014484       0.58061096       0.09260677      -0.11806457      -0.31820033      -0.80603366
C        9.83355662      17.92844611       4.99767406       1.41119200       1.90226463      -1.21335479      -0.30504465       0.51699075      -0.41116454
H        9.17262124      18.72307442       5.39351039       0.07996873      -0.66354428       0.14974481       0.09374125       0.16326565      -0.02369538
H       10.63831195      18.45491599       4.40098614      -0.49615942      -0.24449316       0.65815899      -0.00568446       0.16725195       0.13197006
H       10.34702069      17.26963988       5.68295952      -0.07086040       0.02142407       0.81995585       0.09644584       0.23957301      -0.00338544
C       10.15529696      16.07579837       3.51101223      -0.67104399      -1.12084293       0.38800190      -0.19125622       0.32537171       0.99743050
H       10.61209761      15.60423350       4.43814468      -0.38917797      -0.01054656      -1.25455061       0.11891040       0.03384601       0.09146829
H       10.93779764      16.51069217       2.85807520      -0.40214452       0.23777360       0.33556960      -0.08419107      -0.40318552      -0.25423419
H        9.47689098      15.43727762       2.90301208       0.96313847      -0.46581780       0.24347956       0.04975181      -0.37778299      -0.18622667
H        8.76845060      17.58010371       3.23683176      -0.07569562       0.21672331      -0.00312865       0.04281381      -0.26589771       0.10757459
H        8.34681071      16.66382053       4.56796555       0.27201678      -0.43306643      -0.41097678      -0.00479845      -0.01346909       0.25655132
Pb       0.05735381      13.70006863       7.13338796      -0.11356049      -0.13590162       0.02107581      -2.38570600       3.57892285      -3.23862728
Pb       7.08938901      13.46299029       6.36175570       0.10463776      -0.14172446      -0.07556021      -3.95094825      -4.03145722      -3.60575080
Pb      -0.41143134      14.20881548      -0.57565273       0.16804864      -0.12552433       0.21617018       0.99625191       3.29203487       0.20567144
Pb       7.33149770      13.69850057      -0.33369459       0.06844101       0.26207600       0.59614751       1.11751262       0.70554025      -2.33072465
I        3.05830943      13.70693047       7.02466452       0.33147908       0.06964238       0.13487479      -2.11160325      -4.41757642      -1.14259686
I       10.14092640      13.55750282       6.67384589      -0.12381136      -0.08735643      -0.00565681      -0.74213832      -1.02203260      -2.89159079
I        6.99340250       9.64420397       5.93820076      -0.07604845       0.07640346       0.02783123      -0.65936137       2.88509765       0.76440208
I        6.68635012      16.39728870       6.46768721       0.00945773       0.08678129       0.03871266      -0.92717492      -0.99455405       1.75328914
I       10.39527046      13.15424934      -0.66797076       0.22755306       0.19877884       0.39217709      -1.59988015       0.86248065      -0.17404350
I        3.38506787      14.12011350      13.40840357       0.02140047      -0.11058654      -0.19306146      -1.24357121      -2.04733551       3.76566816
I        6.60687242      17.04170565      13.35600014       0.17947797      -0.05628137       0.01499554       0.82021610       2.62038592      -2.87919899
I        7.08054865      10.74408544      -0.18816627      -0.07958035      -0.41132274      -0.10505233      -0.20545264       1.43465657      -1.27962901
I       13.73335717      13.14987749       9.93233830      -0.06517818       0.08482076       0.21219177      -0.76154746       3.77278853       0.31879874
I       -0.56189948      13.28601858       2.63835562      -0.06161150       0.26984143      -0.18614190       3.89564320       1.28299884      -2.14551661
I        6.74869801      13.26293299       3.01305021       0.12160936       0.09391418       0.25872893       0.33084089       2.11972524      -1.07016660
I        6.96202741      13.66205448      10.12291288      -0.00520662      -0.10083746       0.08782527       1.37185979       0.34724216       1.45870686
N        9.29275239      10.33681371      16.07954259       0.34059911      -0.65458267       2.21657744       0.01509991       0.06918283       1.07428354
C        9.59106981       9.40365554      17.31341185      -2.98387334       1.04346046      -0.50032355       0.78056515      -0.61162799      -0.05997516
H       10.51285177       9.64712860      17.74630603       1.67569109       0.49496177       0.35321486      -0.15513638       0.07797167       0.03573540
H        9.54770714       8.36883494      16.94439379      -0.04984502       0.11255625       0.24273046      -0.24586546      -0.12346007      -0.17899989
H        8.79051531       9.68351249      18.08370351       0.79372472      -0.78029742      -0.94718288      -0.21090257      -0.24890375       0.15616969
C       10.53844369      10.52314866      15.33056614       0.00842696       1.48073115       0.04694521       0.64449307      -0.10133805      -0.25333052
H       11.12020568      11.21438373      15.96142153       0.24354354      -0.03266846      -0.48163097       0.19998266      -0.09463212       0.22929623
H       10.34693243      10.93499931      14.33339983      -0.05171476       0.19888079       0.10855183       0.22909728       0.16222097      -0.03549951
H       11.05946634       9.60418358      15.22634191       0.42042572      -1.09717429      -0.00790891      -0.03866563      -0.39161916       0.03845984
H        8.88405017      11.25804167      16.43420315       0.20951340      -0.60148094      -0.40591197      -0.25432342       0.11144367       0.13375286
H        8.58129900       9.84164824      15.55365080      -0.54557526      -0.03744276      -0.62645594      -0.09417733       0.01643453       0.12206657
N        2.97145965      17.23039898      24.13436239       1.70120602       1.08302187       1.24775073       0.35538997       0.94541545      -0.02853325
C        2.10300264      17.01523033      23.00929987      -0.44851831      -0.49936909      -2.14162608      -1.19670102       0.93843563       0.12472866
H        2.08492789      17.83660880      22.25539268       0.38348912      -0.08376818       0.55449540      -0.23156625       0.08366617       0.05895754
H        1.06790812      16.81711575      23.25890829      -0.36435238       0.10862100       0.61779418       0.03868759      -0.03483094      -0.18419030
H        2.44628023      16.10581039      22.48948820       0.06614211       0.08711862       0.02382763       0.25725086       0.05155831      -0.11952547
C        4.46971883      17.17864109      23.82086558      -1.44065157       0.77079905      -1.09262229      -0.67147570       0.47738968       0.61534942
H        4.49944114      16.28561080      23.17274455       0.86646818       0.14462349       0.43616638      -0.06954905       0.22945129      -0.11412366
H        5.00256048      17.20072500      24.77769174       0.19952493      -0.34910583      -0.26752458      -0.02361686       0.08453583       0.26369808
H        4.68417697      18.09623582      23.21761026       0.08627717      -0.61309717       0.33220404      -0.08680725       0.01048854      -0.09820663
H        2.88695492      16.47397650      24.82568052      -0.67839892      -0.54196585       0.49878439      -0.15750231       0.14865529       0.14876159
H        2.80861466      18.11941770      24.66081686      -0.33738039      -0.19273027      -0.29431777       0.00452952       0.34284337      -0.10073925
N        3.85153581      10.88015372      24.91111424       1.68832232      -0.67901963       2.13384751      -0.52746245       0.06970876       0.61336576
C        3.85097524       9.70910079      23.98336002       0.47127976       1.44100759      -2.28604821      -0.05065697      -0.12794178      -0.17773297
H        4.89018608       9.59915493      23.55822637      -0.69368720      -0.06452812       0.60293738       0.13898564       0.08717143      -0.07654692
H        3.23064604       9.97167951      23.08833100       0.14098999      -0.05615830       0.60494816      -0.06000497       0.11366065       0.22373679
H        3.48157683       8.79686438      24.39173623      -0.24158695      -0.70124457       0.74850084       0.05504207      -0.04549444       0.02708256
C        4.47489861      12.12631399      24.35308587       0.62624824      -0.38920438      -0.38131599      -0.24339771       0.00104840      -0.20359571
H        3.71782121      12.35016722      23.60092319       0.32927975       0.93446430      -0.44248252      -0.26387498       0.10137342       0.07777272
H        5.49951741      11.94484885      23.89885978      -1.09727285      -0.25961939       0.34845917       0.10447390       0.00344646       0.18245879
H        4.61289596      12.91631336      25.12001966      -0.47211402      -0.33229776      -0.22347037       0.20902609      -0.14158422      -0.00244797
H        4.35208213      10.55190925      25.79170172       0.27979207       0.35726700      -0.78803265      -0.27575221       0.15234205      -0.31367001
H        2.96607836      11.14915013      25.35815317      -1.05642519      -0.28918137      -0.48119349      -0.14400167       0.01576406       0.23006040
N       10.64456159      16.33492605      17.05509845      -0.72013959      -0.84511792      -0.28011210       0.59614968      -0.34451597       1.02805770
C       10.87648095      17.34648013      15.97084470       2.00282746      -1.08491996       0.08228343      -0.41985382       0.12596130      -0.75033389
H       10.06658557      17.43504040      15.26216418      -0.73263346       0.01050524       0.09076011       0.07560636      -0.21280639       0.16640899
H       11.77378792      16.98323803      15.35871518      -0.86106584       0.72884795       0.84976799       0.03101678      -0.09050027      -0.02756729
H       11.05718798      18.21570247      16.59665411       0.23011123       0.87980713      -0.75087079       0.07609718      -0.03912892      -0.28772639
C        9.48858608      16.75394247      17.92308316       1.27206436       0.03403095      -0.12687796      -0.22696821      -0.04040411       0.47624008
H        9.26514325      15.92395087      18.58939140      -0.20101877       0.10960209       0.24503524      -0.11594929       0.09988155       0.02536432
H        8.70924737      17.02407749      17.25038888      -1.10414667       0.00587788      -0.52152119      -0.24087912      -0.00652842       0.00755074
H        9.79810164      17.69217354      18.40503925      -0.05239526      -0.26475028       0.31364491      -0.28818464      -0.10439093       0.11021889
H       11.48741812      16.23187805      17.65463150       0.27982675       0.22028666       0.03236929       0.01077828      -0.23063346      -0.14831877
H       10.48362775      15.38980437      16.65471653      -0.15764824       0.21343606      -0.12824687       0.03201862      -0.20511301       0.09671050
Pb      -0.40331921      13.38051034      20.35245024      -0.11485093       0.03171735       0.05740570      -0.66415425       0.38084620      -1.12520245
Pb       7.23348700      13.85687056      20.43122458      -0.34752010       0.09282587      -0.25501110      -2.82828909      -1.59783692      -1.17454854
Pb       0.27779991      13.61998933      13.73884098      -0.16692548       0.05347487       0.01044641      -3.73689883       2.24127580       0.80387684
Pb       7.05464370      13.80972963      13.21122468       0.03413697       0.04596944       0.04028012      -0.62912899      -0.02549437      -1.78249407
I        4.03773930      13.79012033      20.13828066       0.06513943      -0.04723673       0.11352735      -2.56960123       2.06579546       2.32575720
I       10.59189480      13.81086204      20.28116643      -0.07723390       0.07143279      -0.08462536      -0.88893563       1.02815442      -2.25723416
I        6.75012767       9.97410377      20.18209315       0.01760448       0.36521388       0.19164194       0.71535136       4.86131614      -1.12416438
I        6.43471196      17.14331455      20.40348830       0.10179098      -0.15790983      -0.08385158      -1.17145885       0.50795985      -2.72368316
I       10.08825046      13.91360124      13.93901045      -0.25757595       0.05604515      -0.15906398      -0.57893166      -2.76730280       2.27810907
I        2.60593655      14.83506833      26.70708691      -0.05960786      -0.11829596       0.13241798       0.92618508      -1.52145437       0.92393583
I        7.20947404      17.29733783      27.39689775       0.00823769      -0.40842565       0.08979415       3.84204713      -0.74192854      -0.39021480
I        6.37913868      10.17505243      13.44605115       0.16502663      -0.03427609       0.17259710      -3.26407778       1.11583004       1.82666694
I       14.03424315      13.70672207      23.26664671      -0.13628010      -0.26849472       0.19464784      -0.08079678      -1.72118797      -1.66790574
I       -0.03101276      13.61764591      17.25351920       0.24535764      -0.12830694      -0.06934580       1.02933555      -3.44394850      -0.96020439
I        7.14693560      13.14205776      17.19726840       0.04349223       0.04587212       0.06696001      -0.36791103      -2.80211713       0.61999146
I        7.52159459      14.64492445      23.73189068      -0.04953293       0.10958593      -0.57172066      -4.06320882      -0.73357809       0.53349608
N       16.15453507      16.87098183       3.13733065      -0.84935010       0.76674387       0.92453612      -1.06319007      -0.17160859      -0.88405781
C       16.14745082      18.02643940       2.12532567       1.76435389      -0.71692963       1.41934593       0.25434748       0.72163646       0.04730708
H       16.73617063      17.61652722       1.31826097       0.61349605       0.30125242      -0.46689658      -0.03092028      -0.02168033       0.41275885
H       16.61293316      18.86444764       2.67707066       0.05184745      -0.17650850      -0.52331263       0.12323825       0.04398303       0.08600195
H       15.20823350      18.30987920       1.70841409      -1.16834430      -0.11570997       0.20089585      -0.26939375       0.34959620      -0.14252380
C       17.50292776      16.31163194       3.63512258      -0.60816392       0.25106386      -1.45480868       0.72574716      -0.05508240       0.15631731
H       17.80151625      15.65306119       2.78974643       0.47396637       0.36416774       0.47863230       0.05659740      -0.23038793       0.28595750
H       17.33383047      15.69318883       4.52774179       0.02106207       0.28035548       0.00751149       0.18878472      -0.09518306       0.00725799
H       18.17696697      17.18151454       3.80719225      -0.26395863      -0.60640629      -0.05958755      -0.01674141      -0.00905870      -0.13438588
H       15.53334584      16.14656687       2.78146871       0.01750261      -0.70873019      -0.44278806      -0.01474719       0.10431073       0.03072389
H       15.64548330      17.17235987       3.98032063       0.03339103       0.36846821       0.12531373      -0.00440394       0.08882969      -0.01917214
N       10.38959745      23.40980069      10.00153604       1.34617112      -0.85821243      -1.81647392      -0.66376017      -1.45489691       1.01176875
C       11.52835882      24.37601955      10.11599035      -0.78225283       0.79070695       1.82005575       0.62424467       0.76444324       0.06698342
H       11.25836945      25.25370733       9.52078965       0.27422435      -0.01429383      -0.14033529      -0.04207569       0.06234826       0.27705597
H       12.48399427      23.93309623       9.87749159       0.26969594      -0.27101479      -0.38941972       0.20779471      -0.12984517       0.08803329
H       11.54500063      24.67419428      11.21883688       0.09504841      -0.09436391      -1.19482393       0.03601392      -0.14352329      -0.01087889
C        9.09615958      24.11633892      10.21995661       0.08608258       1.42480699      -0.69082033      -0.38821528       0.98326140      -0.57255006
H        8.23471501      23.44400786      10.14409932       0.09070028       0.01232830       0.41725973      -0.13939115       0.32845522      -0.12214436
H        8.99422362      24.93271567       9.44508839       0.13026142      -1.05311577      -0.06918749       0.12566727       0.06051785       0.30166910
H        9.19008683      24.80751537      11.08306623      -0.19446623      -1.04821800       0.45528279       0.20493729       0.24080794      -0.11825673
H       10.68005612      22.62017967      10.62247528      -0.94094054       0.19427191       0.16608429       0.10451272       0.07330428      -0.09006099
H       10.44939795      22.91228863       9.00851696      -0.46457576       0.75187745       1.46426351      -0.12666205       0.04725788      -0.20467286
N       11.42141824      17.56617630      10.67719495       1.03759541      -1.72124054       0.97456716      -0.61625554      -0.70939532       0.02767875
C       10.18968203      18.17735192      11.13320584      -0.17115532       0.72061725       1.20870443      -0.44547946      -0.78836560       0.36685904
H        9.47307303      17.39810074      11.45710218       0.06690992       0.39743475      -0.35992854      -0.04141564      -0.09571565      -0.28727260
H        9.86780135      18.86527020      10.33240573      -0.46385070      -0.45087222       0.08256362      -0.02187264       0.03098269       0.13377413
H       10.47065051      18.83927240      11.98893066      -0.38073305      -0.40884905      -0.21755821      -0.20892757       0.10653939       0.11324304
C       11.19982171      16.63788577       9.57622637      -2.79201968      -0.13600504      -1.59690543       0.54582316      -0.19358991      -0.22564768
H       10.66127839      17.25577207       8.75596509       1.07086438      -1.05626783       0.87799850       0.16091551      -0.09841322       0.15282163
H       10.50186365      15.75310370       9.78506361       0.45563862       1.27557254       0.48812660      -0.04117609       0.37430162       0.06814593
H       12.08822056      16.13420330       9.26945635       1.05334449       0.08561169      -0.48604748       0.05353923       0.13623700       0.12611421
H       12.04359203      17.01910551      11.44790219      -0.95380413       0.80132318      -0.55014114      -0.00599708       0.12858880       0.22390560
H       11.98368042      18.35000706      10.37822792       0.91361124       0.44031212      -0.38197710       0.15446220      -0.05583808      -0.02491749
N       16.79400156      24.52188787       4.05844145      -1.31352674      -0.68049978      -0.00137305       0.19474417       0.33169172       0.71128299
C       17.19566424      23.25400304       3.38708664       0.60596397      -0.46710740       2.18294048       0.27589632       0.36110507       1.28210358
H       18.18919496      22.92737914       3.79527389      -0.98182641      -0.13679936       0.16648565      -0.21554017       0.11171115       0.37498209
H       17.38354708      23.37943005       2.38740366       0.19631343       0.75552168      -2.77472143      -0.18620307       0.14208392       0.08065999
H       16.34461085      22.56118093       3.50472699       0.50990529      -0.09639129       0.18494101       0.07315792       0.13584224      -0.22808502
C       15.53910866      25.09966379       3.43306221      -0.37052858      -0.21146525       1.40203389      -0.61573232      -0.79559770      -0.23242169
H       15.36027257      26.11862812       3.85527442       0.21978062      -0.52016268      -0.35534702      -0.05497616       0.30321525       0.05566627
H       14.69268777      24.44482674       3.79066927       0.60316759       0.45635324      -0.80776675       0.04135552       0.05156053      -0.12276709
H       15.74679459      25.12739390       2.36373863      -0.46942937      -0.00534316      -0.19772770      -0.08269894       0.08149876       0.09690726
H       17.45348515      25.28773902       4.05703468       1.07852476       0.15003736       0.13165045      -0.03544713       0.06581447       0.20990981
H       16.60510786      24.19612408       5.02324882      -0.02668908       0.80522616       0.07892621      -0.19445364      -0.02555852      -0.10163554
Pb       6.60632276      21.32786010       7.32748466      -0.11670699      -0.21019689      -0.11290264       1.23538628       0.69151264      -2.20772206
Pb      13.19919350      20.14680099       6.70614396       0.04156343       0.21059531       0.24472234      -1.48796077       1.17322118       1.23138724
Pb       6.40869459      20.21477824       0.67215375       0.43877958       0.34315392      -0.07523789      -3.18529420       1.47443516       0.83467700
Pb      13.31598590      20.89260130       0.46134181      -0.12960539       0.05727100       0.00170562       1.67131745       1.88799810      -0.64937018
I        9.71250466      20.75849399       7.65328280       0.17708722       0.12062404      -0.07662085       0.21849764      -3.27434974      -2.00689224
I       16.25901319      19.83350152       6.65356012       0.42999353       0.06295228       0.03813420       2.29155780      -3.35081096      -1.11405017
I       13.87617298      16.58879959       7.10739476       0.01585008       0.25337152      -0.22332584       1.56395510       1.93746501       1.02694726
I       13.80890029      23.57203899       6.79855747      -0.01882821      -0.05275178      -0.01931436      -2.71636672       1.19282527      -1.45426516
I       16.83846049      20.64992417      -0.35823764      -0.02230788       0.10006725       0.07203535       0.55979790       1.03405126       1.73766297
I       10.55409838      21.03542911      13.63962223       0.03122187      -0.00748766      -0.04750524      -0.65330693      -1.77591007      -0.30527150
I       14.32783057      24.03100019      13.26201653      -0.18170491       0.21674487       0.02496038       1.90525906      -1.71396285      -0.13652008
I       13.28841847      16.86556723       0.21239578       0.02264941      -0.29432948      -0.03776362       0.25962081      -1.07200337      -0.70543988
I       20.62026294      20.49382124       9.69203480      -0.26704067      -0.00268377      -0.05027970       0.11016007      -2.65614667       0.96536391
I        6.71801614      20.54905543       3.88304291       0.01162826      -0.14336270       0.11882613       0.11080563       2.28861030       1.22313560
I       13.53148806      20.62208627       3.72491253      -0.06081154      -0.02330581      -0.08574717      -0.26311035      -1.88074823       0.49247095
I       13.47355767      21.07575832      10.00016072      -0.11463503      -0.22902527       0.01168326       0.36889359       1.73599234      -0.56895559
N       17.24649282      15.98341523      16.62789697      -0.90146093       0.16669451      -0.39434761      -0.71390593      -0.60575828      -0.67773504
C       16.23827063      17.08666060      16.46170420       0.16661864      -0.10082698      -1.34488229      -0.37398053       1.13602212       0.39811962
H       16.29949733      17.52580534      15.41404516       0.49013872      -0.18029862       1.16806089       0.10059707      -0.10364254      -0.21127099
H       16.43629841      17.78086428      17.26949351      -0.16297241       0.53367949       0.04930249       0.11930195      -0.06463762      -0.15927185
H       15.23048285      16.68013082      16.47784961      -0.26914192      -0.24330725       0.49044388      -0.01524636       0.00446681      -0.07490458
C       18.61532188      16.49817853      16.46722832       0.45949754      -0.83692902      -0.84387621       0.00273657       0.80027348       0.07085085
H       18.71744299      16.96242539      15.45871131       0.16939136      -0.67243152       0.36208495      -0.03414174      -0.05836850       0.11119855
H       19.34968703      15.72994452      16.77563311      -0.19749148       0.02622025      -0.74560877      -0.13519420       0.10240230      -0.04901343
H       18.76388667      17.26245777      17.16163551       0.01432092       1.61901974       1.39146359       0.13844679       0.45364246      -0.11610212