320
Lattice="25.385841354946393 0.24336826175251705 0.1915214021902723 0.1692467796594025 25.323567930455216 -0.0792598148069602 0.22752822365041772 -0.1549357180533926 25.251134020089392" Properties=species:S:1:pos:R:3:forces:R:3:momenta:R:3 energy=-903.9685058593751 stress="0.0004240073321852833 -0.0001226603053510189 0.00019532667647581545 -0.0001226603053510189 0.0004178307135589421 -0.00017196581757161766 0.00019532667647581545 -0.00017196581757161766 0.00014047868899069726" pbc="T T T"
Cs       9.22874119       9.24574738       3.02491682       0.04893490       0.05496901       0.02178296      -2.52691478      -1.64249714      -0.56050895
Cs       3.60184518      15.97644947       9.34733135       0.14633551      -0.17061785       0.07907614       0.33318611      -0.25573342      -1.49532349
Cs       3.58358748       9.31164723       9.56959100       0.32281515      -0.00771680      -0.21480015      -0.64182198      -1.10046479      -0.08377875
Cs       8.81569281      15.43755429       3.15041705       0.09159862       0.04594021       0.00150555       2.61322547      -0.63376740       0.60693557
Pb      -0.14817114      12.90490772       6.20562856       0.04848314       0.01389164       0.17427337      -1.49725503      -0.99842978       0.96018558
Pb       6.28232029      12.88029884       5.96990733       0.03188055      -0.27867364       0.42997145      -0.69255873       4.30064485       5.31418413
Pb      -0.10447030      12.20866171       0.12282372       0.04890007       0.57697856      -0.00795608       2.74331145      -2.55434333       3.88224731
Pb       6.30533133      12.59623535      -0.36115997       0.06743087       0.07833147       0.34862908      -2.80789819       0.46006785       2.88057655
I        2.95217745      13.26560456       6.58745449       0.29828292       0.10433002       0.14857161      -2.55855762       0.92800537      -1.40327436
I        9.46267774      12.18255920       5.61438857      -0.07186071       0.04418424       0.02010518       0.20229419       0.07991822      -4.70858179
I        5.57979862       9.70162346       5.94653225       0.23896097       0.06466209       0.13617543       4.29287104       1.96117194       2.24331978
I        6.92146341      15.96493414       7.02676933       0.00865144      -0.01035984      -0.02521944       4.31143640      -1.65125109      -1.50101276
I        9.37662119      12.39577852       0.63463485       0.22532752      -0.14148259       0.03054236       0.84886039      -1.60865275       3.01860601
I        3.54004224      13.29990430      12.75841761      -0.27071586      -0.09340944      -0.09368825      -0.10263306       2.23767695       0.77885110
I        6.82434690      15.79359616      11.93721842      -0.00229790       0.09502928       0.15232468      -1.56927796       2.88712784       2.58712778
I        5.49445885       9.54707533       0.40975154       0.07509200       0.02040493       0.13853425       1.58170178      -2.83054970      -3.20064155
I       11.91729516      13.48775712       9.45603433      -0.06298312      -0.04612220       0.09609327       1.80403315       1.92758790       0.99465701
I        0.68095050      12.19573084       3.31733587      -0.08100735       0.12450821      -0.29787547      -1.79127982      -0.89691521      -0.95697208
I        5.73604775      13.11663344       3.05221605      -0.02218754       0.05839556      -0.11084753      -1.31218187      -1.40095444      -2.69387637
I        6.76861381      11.96524328       9.69485322      -0.06763464      -0.04036043       0.01248970      -0.38504088       1.52541147       0.25184671
Cs       9.25253804       9.28996076      15.83315360       0.05308818       0.01025630       0.05287285      -2.27385824      -0.09756568      -0.68353268
Cs       4.05645370      15.80715885      22.12744453       0.02041778       0.20943550       0.27882155       1.84422516      -2.66342795      -1.34805432
Cs       3.40104062      10.07739831      22.26853277       0.07835940      -0.13249237      -0.03245701      -1.51038096       3.07391327      -0.79980701
Cs      10.18844402      15.35122470      15.62441051      -0.22495445      -0.03847496       0.12166082       0.14582543       0.90167049       0.00672775
Pb       0.49690234      12.58718722      18.73043286      -0.06694083      -0.44972333       0.41408933       0.29992089      -2.08218359       0.00452678
Pb       6.50367126      12.76127113      19.05519972       0.11215428      -0.33035015      -0.11244116      -3.99056706       0.92117232       4.51833098
Pb      -0.32628376      12.45522931      12.31297814       0.04165585       0.03891321       0.27736132       5.82745676       1.89069587       0.21011138
Pb       6.50217838      12.51730363      12.85125964       0.02124357       0.11169242      -0.16198593      -1.18823441       1.11332266      -0.09215650
I        3.57136181      13.40527870      19.63390750      -0.15957531      -0.13158162      -0.11150766      -0.15285470      -0.17951914      -4.37584254
I       10.00027789      11.80662137      18.92886107       0.07101353       0.00278148      -0.25033983      -0.53235796      -0.68509671      -4.00008656
I        6.61419823       9.68470587      18.67474060      -0.13415754      -0.64051201      -0.14405881      -1.62648213       1.30526204       0.80779569
I        7.56055632      15.50044654      19.41275796       0.24115680       0.74233182       0.30145955      -1.14423539       1.71714860       2.93818322
I        9.79457848      12.00704923      13.16691764      -0.13919474       0.00224523       0.08948386      -0.99258516       0.34109371      -3.45642429
I        3.31667449      12.82437492      24.75321927      -0.05893375       0.23776543       0.00843443      -3.04626119      -1.79548148       1.20281348
I        7.26440749      15.60911139      24.63251114      -0.06497583       0.08856450       0.05628093      -1.73534498      -0.03521500       0.89660448
I        6.08095859       9.15420864      13.19058080       0.03684330       0.30057529      -0.07251630       1.88520499      -0.35708733       0.64324188
I       12.09773461      13.15209850      22.20650595       0.09518994       0.11044127       0.31678861       2.95168486      -0.09813485       0.24519162
I        0.27657084      11.93746087      15.78274567       0.06671551       0.03363185      -0.46774827       2.20467606      -1.13239853      -2.07342221
I        6.15776251      13.53925170      16.07649783       0.08611091      -0.17062321      -0.33112979      -1.22915518      -1.50368731       0.46740018
I        7.30989257      11.79193657      22.08916299      -0.08666573      -0.02633605      -0.04716396       0.75984343       0.60856965      -0.81117774
Cs      15.41190110      15.60993925       3.40538899       0.13387938       0.22436703       0.03922287      -2.83723915       0.20739550      -1.15562605
Cs      10.63462219      22.62572987       9.73410267      -0.13485810       0.02904216       0.07147910      -0.00758838       0.45128387       0.43642380
Cs       9.78777728      16.91847498       9.95810604      -0.02099904      -0.27034074       0.05548929       2.00644509      -2.19557255      -1.72471463
Cs      16.10627755      21.71224214       2.94333765       0.33747090       0.11877720       0.05576384      -1.12230402      -1.21560824       3.69703639
Pb       6.32058551      19.16137429       6.95799918       0.07982230      -0.08478313      -0.49991859      -4.45332898      -3.18397474       2.63980705
Pb      12.56017905      19.24682653       6.49399140       0.19816861       0.05847311      -0.09777716      -1.67055277       0.48090723      -2.83146986
Pb       6.59204139      18.99188670       0.26413130      -0.16540934       0.05506644       0.09817793       0.22525373      -5.34109086       3.69477852
Pb      13.03720068      19.09008168       0.41147277      -0.24133335       0.06447781       0.18388331      -2.62353185       2.26951861      -2.44421293
I        9.37039484      19.63302367       7.64814635       0.09336480       0.22081226      -0.20518062      -0.03556680       0.11830221      -1.51354649
I       15.76081637      18.20207738       6.56687343       0.18502764       0.17475165      -0.27565127       2.56475215       2.02601488       0.45922209
I       12.02274844      16.13080911       5.46838667      -0.13792814       0.38424505      -0.00979672       3.13241995      -0.47621912       0.97389563
I       13.43332302      22.34534145       7.27908023      -0.00895196      -0.04819638      -0.03337864       0.74507165       0.90293926      -1.29177177
I       15.93191143      18.14848291       0.61887537       0.35878661       0.13014020       0.03368560      -1.55040855       1.21795029      -3.03960798
I        9.57855347      19.73478344      12.80137710       0.12145199      -0.02230026      -0.13900092       1.02866550      -0.25541014      -2.38012874
I       13.11113236      22.14442981      12.76270972       0.18023982       0.42269334      -0.09379967      -0.31610522       2.79880678      -1.82151417
I       11.88821309      16.17010156       0.95005436       0.05941711      -0.20245529      -0.06412514       2.37845675      -1.34191486       1.28921673
I       19.33425956      19.51999639       9.90384508      -0.16827906       0.13067286      -0.21057161      -1.94386158       1.13728451       1.03617738
I        7.01353187      19.10974198       3.49944275      -0.03798868      -0.36413180      -0.06432747      -1.50560851      -0.42585698      -0.13822171
I       12.92412673      20.58277681       3.53788055      -0.35182980      -0.37058737      -0.01284214       0.05149580       0.69470103       0.39701068
I       13.10447674      18.74840544       9.47806427      -0.04789460       0.03073560       0.32533724      -2.72860602      -3.01276192      -1.58662782
Cs      15.38802462      15.47805848      15.54018633       0.08164891       0.12363953       0.05231061       2.93551684       0.24779341       1.73321355
Cs      10.05784217      22.39579355      22.56387923       0.09592768      -0.05954784      -0.06766131      -0.86695934       0.42712208      -1.08897781
Cs      10.26633789      16.65727725      22.43973939      -0.19502239      -0.18502769      -0.06800072       0.97084440      -1.17195285       0.88986929
Cs      16.53698790      21.48600655      15.74496381      -0.44431246      -0.05434040       0.33258602      -0.23883837       2.79998484       1.08764802
Pb       6.56822134      18.62933208      19.18817098       0.20402232       0.10164472      -0.11890112      -1.52509120      -0.25227992      -2.84802881
Pb      12.93013566      19.05434940      19.30115951      -0.13411159       0.15451629      -0.02815477       1.94893564      -2.01394002      -1.31564304
Pb       6.54190463      18.89333153      13.27366483       0.00386859      -0.04327683      -0.11462376      -0.37221746      -0.18568061       0.27755704
Pb      12.80831619      19.21181773      12.91455800      -0.02636916      -0.42699089       0.00140376       1.36308074       3.51582619       2.65809322
I        9.85164813      19.57437128      19.46819929      -0.24755974       0.01274561       0.14793119       3.64547658       0.27370398      -0.33618516
I       15.77318252      18.65024407      18.39807178       0.67134426      -0.04706533      -0.18992264       6.07505409      -1.72608449       2.59760929
I       12.77477292      15.86614440      18.73680827      -0.10113904      -0.12321851       0.00857086      -0.52513365      -0.63596607      -2.11431246
I       13.85155342      22.30037288      19.26398585      -0.14684822      -0.24643845       0.05226806      -3.06515426       3.38493879      -0.51872251
I       16.27053754      18.66938892      12.85908283      -0.17360347       0.07788430       0.20527820      -1.12497742      -0.00740958       2.20046888
I        9.76252742      19.40862401      25.05314576       0.28330283       0.13928719       0.03386316      -0.75876387      -0.88639178       0.25482854
I       13.35284468      21.97648754      24.73577423       0.09743598       0.24961451       0.00054002      -0.24855528       1.65550462       1.60505019
I       12.43188837      15.83224610      12.74606306      -0.01384661       0.11857909       0.08284648       2.22511574       0.76658295      -1.15862728
I       18.47922431      19.69781470      22.04517695       0.03419014      -0.14035355       0.43645909      -2.68236163       4.08966782       0.11133940
I        7.27930818      17.76556096      16.04370351      -0.04960415       0.20588684      -0.00622679       2.20206231      -2.99972902       2.79361686
I       12.30139249      18.90102983      15.99024545       0.03618906       0.07319973       0.02760863      -0.15686020      -0.80155454      -2.28609041
I       13.37818401      18.49629057      22.62323831       0.07635231       0.05999495      -0.32914429      -2.53608764       1.54107773       1.52355577
Cs       9.40501325      21.86079315       3.56740221       0.04201032       0.18397047      -0.13384417       0.00107876       4.55376919      -5.61945254
Cs       3.80171052       3.07889605       9.91148808       0.05683613      -0.10600511      -0.18563908      -2.98335550       2.18168483      -1.46872782
Cs       3.40717986      22.59404241       8.62837178       0.17648452       0.09518030       0.15104221      -2.45248810      -1.55538488      -1.33723029
Cs       9.60486876       2.84267169       3.39860315      -0.04312649       0.01603962       0.02517795       0.05519476      -1.36986520       1.34221406
Pb       0.15483972       0.28157411       6.27243923       0.06128803      -0.39144187      -0.07865150      -3.80984518       3.79951408      -0.45916474
Pb       6.45755525       0.10034481       6.37399183       0.22368442       0.01159799      -0.38642840       2.72980662       5.32085933       0.58088861
Pb       0.00432416      -0.03481961      -0.02785279       0.22329890      -0.02606068      -0.02644184       0.02899934       0.59983853      -3.84396742
Pb       6.32967122       0.08412422      -0.15564473      -0.05052234      -0.05872689       0.32708059      -2.88589420      -4.14545123      -1.31562409
I        3.52948411       0.85501324       6.60743338      -0.32706022       0.06525502       0.06414120      -0.33698623      -0.09688700       0.52441975
I        9.98367687      25.03752008       5.53578236      -0.06710094      -0.03551174       0.10698576      -2.93812194      -2.32872457       2.96491400
I        6.02519861      22.28854171       5.41476244      -0.11105969       0.16421235       0.25522167       1.96006318      -1.30122389      -1.82574480
I        7.54056889       3.33184958       6.93058466       0.00848486      -0.35959889      -0.01916114       0.12881912      -0.80327507       0.43391768
I        9.62511848      25.00999913       0.80567861       0.16069724      -0.02235458      -0.11086539      -2.24088873      -1.53260221      -1.97629972
I        3.55702425       0.34251182      12.76450254       0.09583560       0.08631873      -0.08102348       0.81153059       2.38704953      -1.37728275
I        7.66316379       3.05811542      12.00764837      -0.14954295      -0.13250372       0.14226366       0.91005465       1.76443161      -0.18842842
I        6.00095278      22.28699795       0.56382809      -0.03883026      -0.06191061       0.00061031       1.90462053       0.99750020      -1.51822657
I       12.63800577       0.55524101      10.06693657      -0.05823374       0.02127774      -0.24921155       0.12778703      -0.78567533      -1.02943966
I        0.77773932      24.84520448       3.04099263       0.08403097       0.00835640       0.01147288       2.48011963      -1.39923050       0.06396405
I        6.16800041       0.90354036       3.08557552      -0.09496871       0.02877749       0.10002425       0.77601933       3.39009950       0.11885515
I        7.10457065      24.59871551       9.22173272      -0.00232681      -0.12240037       0.20301216      -1.50381733      -0.96876012       0.49343857
Cs       9.90577660      22.10730824      16.13755504      -0.03995548      -0.17964133      -0.23872386      -0.33798492       1.41606022      -4.17640204
Cs       3.45596205       3.09096148      22.21025911      -0.00606187       0.15539923       0.02992717      -1.14217615      -1.37128031       0.38217909
Cs       3.80210196      22.08775279      21.88854850      -0.08545135       0.08211155       0.03438424       0.53256560      -1.37213418       0.40558044
Cs       9.57067309       2.87907075      16.12271578      -0.37220616      -0.02435221       0.03546419       0.00492253      -1.77508652      -0.41333705
Pb      -0.01570696      -0.01545518      19.00176022       0.22437055      -0.02093832       0.11343450       2.57753632       1.50291539       0.56191849
Pb       6.81230162      -0.21445616      18.93411731      -0.03053957       0.17458776       0.06189622      -1.56358407       4.44962110      -0.69757669
Pb       0.48521745      -0.36917132      12.58724032       0.00229634      -0.20005131       0.11194655      -1.88772820      -1.73767288      -0.92019675
Pb       6.73557064      -0.10891994      12.40646115       0.02605893      -0.00459757       0.25291490       0.45680070       1.88925227       0.54568352
I        3.50989480       0.54132454      19.46727458      -0.03412961      -0.17207729      -0.18388961       3.31916299      -1.20845240       0.05573163
I       10.29715944      24.53944249      18.67372093      -0.34990994       0.14761224       0.12183428      -0.05653352      -0.02996592      -0.87870065
I        6.67707066      22.02237903      18.39471401      -0.14871006      -0.17556594       0.04064307      -0.16843268      -2.84943292      -0.88408450
I        7.69766901       2.92981069      19.75245707      -0.18734306       0.17339595      -0.10897549       0.90474336      -0.51223783       0.89217268
I       10.11231338      25.18602322      13.18734486      -0.13145550      -0.12801873       0.06812641      -3.31817366      -1.26485899       0.40109039
I        3.50255749       0.09703079      24.28922413      -0.12874443      -0.06081055       0.13660722      -3.18551457       2.25664624       2.80936546
I        6.52255816       3.25228645      24.93308900       0.16425674      -0.25804087      -0.17883762      -0.91338526       0.26741807      -0.50213023
I        6.16289614      22.32548394      13.47185679       0.09797339      -0.27525138      -0.08734833       0.03404201       1.07132880      -3.40662963
I       12.32221624       0.33830776      22.49899357      -0.10016505       0.06717707      -0.30338893      -1.53966265       3.30369083      -2.11619733
I        0.29619511      24.43221234      15.80830788       0.08863851       0.08468572       0.00301128       3.09604332      -2.32419223       2.00039941
I        6.42844408       0.32006634      15.84501457       0.01305562       0.20811391       0.02472412      -0.37551429      -2.08073903       0.49421116
I        7.02931693      24.44359856      22.04119197       0.07959506      -0.00651247      -0.10263721       1.39392732       0.45123755      -2.39775572
Cs      15.87624308       3.32189021       3.87570481      -0.22122170       0.08787403       0.07625618       3.56441009       1.06719356      -0.04838279
Cs      10.17409270       9.92983124       9.60948377      -0.00811932       0.00660899       0.06093187       1.35333072       1.34023906      -0.60376882
Cs      10.58751017       3.58092468       9.76610154      -0.09051424       0.16623960      -0.06405870       0.93616844      -1.31085092      -0.01108420
Cs      16.19822290       9.24304188       3.76135473      -0.22756841       0.01319346      -0.20723105       0.44590649       0.85314732      -2.00131620
Pb       6.87154665       6.24486468       6.50276632      -0.19531673       0.18563489       0.00447229       5.72316210      -2.19451802      -0.36742925
Pb      12.96980975       6.87357135       6.69552699       0.24438297      -0.06762351      -0.06467914       0.86087497       0.36087165       0.15586131
Pb       6.22366534       6.39986162       0.32203434      -0.01038751       0.20130415      -0.18599441       1.62189824      -2.41737943      -0.56012813
Pb      12.90651681       6.57522757       0.22881211       0.01910080      -0.00289418       0.08667434       5.08854363       0.54203827      -5.04371777
I        9.97080723       6.70672070       6.25471349      -0.05994738       0.20029213       0.06043034      -3.04696019      -2.61656668       0.74532149
I       16.40017568       5.81361951       6.69721613      -0.18309023       0.10896212      -0.01914341      -0.96485451       0.53858427       0.08928923
I       12.62312733       3.36979911       6.24748101      -0.00456246       0.08934691      -0.03717310      -2.15449185      -0.89494429      -4.32926817
I       13.21580539      10.02443084       6.84644999      -0.10634032      -0.23955498       0.01067345       0.90341498      -0.94758087      -2.23183613
I       16.22057378       5.61328350       1.08754625      -0.20729812       0.11927931      -0.19288728      -0.15649477      -1.01268325       0.52724293
I       10.19967183       6.64789015      12.54162565      -0.22618948       0.03122476       0.10014898      -1.32872517      -1.06409340       0.25599014
I       13.34947696       9.54373006      12.33031698       0.01077507      -0.12271909      -0.07500310       0.10920368      -0.15526614      -1.11184654
I       12.38058686       3.23976067       0.78862370      -0.04688766       0.21242332      -0.02120118      -2.43240520       1.03869484       0.88646122
I       19.20913310       7.91535674       9.75161450      -0.00959025      -0.18940780       0.09079908       2.04985291       1.25112046       0.63055113
I        6.87323828       5.81524288       3.32906087       0.03568546       0.03920350      -0.16700720       0.96471982       0.89703885      -2.98697207
I       13.06989163       7.35272489       3.43810695      -0.13532648      -0.07282371       0.03776493      -0.15618646       0.03676281      -0.87165160
I       13.46077282       6.55489967       9.95420016      -0.00242293      -0.23721629      -0.12756863       1.56785803      -0.74953699      -1.63831638
Cs      16.12913697       2.61641230      16.62088444      -0.01765133       0.18702299      -0.15602041      -0.59531529      -0.03772492       0.65242184
Cs      10.38992799       9.66708506      22.38110651       0.04637481       0.03570967      -0.13720803       1.12050483       0.52152819       4.71428587
Cs       9.65424245       3.78051521      22.82633000       0.14159177      -0.06099163      -0.03930282      -1.90425451      -3.94797622      -2.58555589
Cs      16.29252684       8.92062029      16.51549074       0.11147998       0.09450277       0.01079354       2.22359380      -0.24408825      -3.77215706
Pb       6.60452836       6.22449915      19.33185982       0.07241510      -0.02578048       0.04541005       0.35655254      -0.17149998      -2.89270215
Pb      13.14948314       6.17613540      19.15595276       0.00565092       0.21738581       0.20902439      -2.52303436      -1.52075493      -3.03712713
Pb       6.85642850       6.11307753      12.84987508      -0.06318902      -0.09192800      -0.07128624      -0.04985325      -0.16025971      -0.84638989
Pb      13.11850578       6.21889964      13.33412058       0.17882477       0.13214296      -0.03827990      -2.12791079       0.27681706       0.64021862
I       10.08074831       6.62924569      20.13301310      -0.14784153       0.01744639      -0.15227732      -1.30591377       0.15685300       0.95475818
I       16.43303507       5.52205909      19.33165016      -0.08440873      -0.02924651      -0.17461000       0.86858364      -1.88701825      -2.88080527
I       12.14028358       3.23394796      18.75282751       0.16042677      -0.06424741       0.06298898      -1.85608725       1.94633573      -0.45528011
I       13.89697967       9.36233164      19.67548050      -0.06524597       0.06906940       0.13798750      -1.46713551       0.64486970      -1.70803649
I       16.69964592       6.28827865      13.35508735      -0.28208515      -0.23590361      -0.08680884       1.35299101       1.23327439      -0.69212579
I       10.05258763       7.02740345      24.87489369      -0.07841369      -0.16359053       0.22507504      -1.63129893      -4.67902111      -1.54570649
I       13.57618248       9.70222132      25.03945723      -0.02112883       0.00027493       0.02613290      -0.72793001       1.34115418       4.16069087
I       12.71099262       3.13020122      14.49216420       0.26872448       0.19662207      -0.25054899       2.13214976       0.42616108       1.12506993
I       19.05775797       6.57165312      22.64594704       0.06300647      -0.05299332      -0.29571862      -2.46923469       2.01797317      -0.38407252
I        6.64978959       6.17069445      16.06509545       0.09838209      -0.14133833       0.09183547      -3.18423578       2.05786724      -3.24246739
I       12.97599423       7.48886307      16.26586978      -0.27871092      -0.22212185      -0.19635824       3.51942765      -1.46421456      -1.21433678
I       13.96606790       6.32509379      22.50453444      -0.01169395      -0.15522200       0.01841524       1.80441779       1.59872251      -1.94800851
Cs      21.95116987       9.52122455       3.69616851       0.05775134      -0.22059464      -0.16859529      -0.17906164       1.00581753      -0.18813426
Cs      16.06747826      16.42158260       9.84140554       0.14948817      -0.15692365      -0.05327840      -2.40303620      -0.33795370      -2.01199318
Cs      16.04901031      10.01497232       9.21207448       0.05334826       0.01975867       0.26668659       0.62316165      -0.10086178       3.16352733
Cs      22.16010803      15.39957581       3.02345404       0.00809465       0.12305078       0.04784471      -0.70249614      -1.33823005       0.70096036
Pb      12.61929483      13.34143892       6.43926615       0.00414480      -0.39208665       0.00505908       2.89170631       1.60301034      -0.73357037
Pb      18.98758395      12.82308903       6.36705924       0.07567419       0.57592267       0.46921702       0.19036402      -3.40890933      -2.83718565
Pb      12.83573623      12.92714339      -0.00893479      -0.01503127       0.07484222       0.22088639       2.26824212      -2.46435620       2.16074577
Pb      18.97909158      12.94920096       0.15996682       0.11079785      -0.03456317      -0.07203329      -2.17472231       1.07826257       1.79472312
I       15.82902619      13.28235891       7.15895391      -0.01262017       0.11775792      -0.04019344       0.44290919       0.87905501      -2.78070691
I       22.18877325      12.37562034       5.95931058      -0.03322698       0.11240297      -0.00445959      -0.99651237       1.83714778       0.27635053
I       18.79253912       9.93875564       6.01927922       0.04054931      -0.79582951       0.06224136      -0.47232862      -3.29096088      -0.92922110
I       19.49283566      15.84571151       7.53975774      -0.00378696       0.27779408      -0.14026453      -4.96609375      -0.92239703       1.77543864
I       22.19811708      12.21952514       0.99012389       0.02265544      -0.11338874      -0.08643394       2.78904422       0.71601802       0.43782767
I       15.86075239      13.44613079      12.21061632       0.31220323       0.08940671      -0.13827955       0.68348688       0.81322545       0.65240650
I       19.45777575      15.90055002      12.63385323       0.15424124       0.02818106      -0.06048387      -3.50440627      -0.81478860       0.59443625
I       18.50836368       9.56437581       0.77722316       0.10896323       0.01672149       0.19167247       1.10177848       1.13725238       0.20320208
I       24.10290064      13.34325207       9.77106218       0.08158570       0.06217479      -0.22487191      -1.67813217      -1.55574269      -1.19007262
I       13.47229362      12.64249813       3.38848559      -0.10857666      -0.26784602      -0.27862589       2.09465574      -0.33939388       1.04702641
I       18.67749916      13.42903491       3.42685399      -0.09250895       0.14582136      -0.25006508       0.55809733       1.03786990       2.09504019
I       19.69727333      12.30472600       9.88977384      -0.18821450       0.05216060      -0.10151035       2.19305324       1.30763826      -0.09478309
Cs      22.75464273       9.43043538      16.21568778      -0.02978552      -0.15319362       0.12422156       3.51428795      -2.79715332      -2.50164436
Cs      16.12987265      16.40109054      21.38049400      -0.06362980      -0.20850207       0.23506828       3.93453924      -0.22990173       3.09843112
Cs      16.83159845       9.55859467      22.95215785      -0.26599273       0.00961457      -0.27418826      -0.73342156       1.26626594       1.81317430
Cs      22.44608145      15.42175628      16.37515341       0.00817007       0.00585147      -0.15555771       3.58233160       1.73827682      -0.90337280
Pb      12.99634815      12.79056033      19.32642794      -0.11217135      -0.31553759      -0.30588777       2.97339191       0.53879844      -1.66409552
Pb      19.20742270      12.50476266      19.25030489       0.17138949      -0.03677516      -0.07094765      -2.35476914       0.74914695      -2.79826621
Pb      13.03216567      12.56598856      12.77390622      -0.22276286      -0.10344276       0.07493412      -0.02819883       2.35553925      -1.24778160
Pb      19.13552299      12.65826427      13.07656300       0.13664651       0.41152642      -0.18229645       1.30528570      -1.72756068      -1.00335970
I       16.13277984      12.71692550      19.55557156       0.08636291       0.09503217       0.21918819       0.29418806       1.57236914      -0.63169827