960
Lattice="27.015762411440544 0.298356925466221 -0.041949725001839196 0.23079014389459296 27.0847481573764 0.06925829951328945 -0.16766361086041146 0.05801887397067698 27.11002698791615" Properties=species:S:1:pos:R:3:forces:R:3:momenta:R:3 energy=-4267.4609375 stress="0.0021293126046657562 -4.20502619817853e-05 0.0005520769045688212 -4.20502619817853e-05 0.001127772149629891 -0.0004954036558046937 0.0005520769045688212 -0.0004954036558046937 0.0017073667841032147" pbc="T T T"
N        9.77676971      11.16506816       3.66838839      -1.60748540      -1.57244687      -1.07110192       0.42285269       0.18920810       0.18199253
C        8.80818058      10.06471612       3.97728651      -0.89727396      -0.16445845      -1.23011571       0.85675016      -0.05046926      -0.10556134
H        8.13441144       9.79050467       3.09065993       0.61758193       0.96065755       1.14075620       0.01683687      -0.27254169       0.09857952
H        8.29717000      10.30549972       4.91177910      -0.42269770       0.00335900      -0.22548050      -0.03901826       0.09165790       0.02848610
H        9.37865408       9.17287892       4.12084536       0.62651926      -0.66678643       0.42106233      -0.05645976      -0.07791329      -0.01987437
C       10.97354369      10.57868666       3.05945418       1.46772121       1.67681097      -1.79542948       0.71386239       0.96596290       0.42277358
H       10.63631210      10.15432344       2.05380162       0.80827928       0.38397866       1.09364408       0.16021640       0.02029062      -0.14574265
H       11.46557051       9.85024946       3.70701342      -0.39653225      -0.31618890       0.12643804      -0.27970123       0.13274939       0.07527467
H       11.74598216      11.44512725       2.97610675      -1.09439328      -1.31034374      -0.36573088       0.01872210       0.09652373      -0.20315233
H        9.99987106      11.56364893       4.55129753       0.50035573       1.30634804       1.35535883       0.09608803       0.11159246      -0.22961453
H        9.26313274      11.86789919       3.05585402       0.61686730      -0.12071134       0.47071844      -0.04026428      -0.06032089      -0.09033201
N        3.07547642      16.98386429       9.46872124      -0.33741240      -1.87141164       1.15301445       0.47686041      -0.44375716      -0.30012797
C        2.01263016      16.66469737      10.47535801      -1.41903263      -0.65207374      -0.81351266      -0.05098639      -1.10291296      -0.24416462
H        1.85502123      15.56083574      10.44595435       0.01259494       0.55843459       0.15016435      -0.16441551      -0.01370524       0.01712848
H        1.01247978      17.17174935      10.22104530       1.37953444      -0.55710826       0.25933298       0.21689424      -0.10487352       0.06393105
H        2.37140314      16.93582252      11.44555784       0.27171471       0.40994775       0.67072791      -0.25360182      -0.16375288       0.05668343
C        4.43154212      17.07253278      10.11170120       0.16984165      -0.18549642       1.84126991      -0.83754893       0.66502723      -0.82852596
H        4.43669585      17.90499794      10.90357600      -0.33543318      -0.73750115      -1.14807291      -0.22155492       0.16437538       0.31142165
H        5.24705273      17.26310457       9.40984597      -0.16257891      -0.12897936      -0.23329624      -0.20372602      -0.26776004       0.09758921
H        4.62097735      16.14213770      10.73893981      -0.30113133       0.68561918      -1.01743426      -0.10904527      -0.26953461       0.25006730
H        2.80729113      17.85059227       9.09134638      -0.14913337       2.39310518      -1.06495440       0.04947582      -0.11932327       0.07128992
H        2.88273662      16.33772145       8.65757454       0.99577931       0.14777069       0.43127278       0.00268552       0.07697637      -0.20763069
N        3.66618209       9.83818126       9.34323654       0.47839615      -0.14402013       1.55689280      -0.91532923       0.37512129       0.73248977
C        3.34576848       8.76973052      10.40823010      -0.14775830       0.12309360      -0.52096317       0.72169924       0.13158474       0.01333705
H        2.41751971       9.05225894      10.86844866      -0.85125164       0.19986501      -0.00834326       0.18683177       0.01905295       0.20015086
H        4.05433292       8.77292623      11.20942239       0.94831444       0.34496416       0.42158022      -0.13574457      -0.18549742      -0.09158249
H        3.27843789       7.72089649      10.05818931       0.03187068       0.58827029      -0.52433102      -0.05852525      -0.11530513       0.28060828
C        2.99513347      11.17417960       9.52574799      -0.59038231      -1.29300067       1.93661861      -0.30486783      -0.51392767       1.46607135
H        3.27972242      11.78500206       8.72131575       0.54314036       1.06334020      -1.09630019       0.22020502       0.02218382      -0.06937084
H        3.36783843      11.55378820      10.50498197      -0.48960392       0.03855718      -0.54242263      -0.15850094       0.14548604      -0.10017940
H        1.88792030      11.03232979       9.49588575       0.65982032       0.01035386       0.26203317      -0.00507129       0.06823076       0.08104757
H        3.37678789       9.50625560       8.45469404      -0.49683683      -0.78736840      -1.49367155      -0.10612752      -0.23337982       0.22853611
H        4.69281595      10.00204937       9.24449218      -0.27911019      -0.24704101       0.09185462      -0.12217943      -0.08114982       0.02124768
N       10.17656557      16.38024045       4.26806737      -0.20022336      -0.18358738      -2.62800535      -0.45824772      -0.36135402       0.01976597
C       11.31446879      16.75158424       3.34183911       1.65315707       1.40502705       1.33846515      -0.12089976       0.21711961       2.14291959
H       11.24779227      17.85635140       3.11673738      -0.37515193      -1.07320498      -0.11160437       0.03636136       0.19639901      -0.09220692
H       11.45885800      16.14701376       2.42585660      -0.43426221       0.00274152       0.48359615       0.28647592      -0.13845255       0.18356100
H       12.25661082      16.70315954       4.01068392      -1.17901929      -0.18091439      -1.05895793       0.01317564       0.12252972       0.10706073
C        9.62639690      17.51824346       4.96796476       0.11082494       1.06652952       1.82402128      -0.69539624      -0.13550633      -0.43090297
H       10.36043750      18.33675936       5.16145383      -0.17224398      -0.49945381      -0.62239550       0.10836795      -0.09565516       0.18660384
H        9.34127047      17.19239681       5.96820483      -0.33791599      -0.12857875       0.17728731       0.37207168      -0.21714456       0.01956018
H        8.73628342      17.87151703       4.46177183      -0.14918724       0.35173172      -0.29893933      -0.17961790       0.35538534      -0.16418693
H       10.49301225      15.64763584       4.88550351       0.15525205      -0.73319761       0.72339044      -0.02815106      -0.01633177      -0.02290311
H        9.38007394      15.98599035       3.70492903       0.67070100      -0.14875334       0.25952761       0.03415199       0.04340213      -0.04323341
Pb       0.12328533      13.72634610       6.73021587      -0.15286959       0.05818595      -0.03088257       1.69692324      -1.39111498      -3.47177315
Pb       6.82784484      13.28280849       6.45639755       0.04449030       0.12742952       0.17194756      -0.09378274       0.68265881       0.84067240
Pb       0.87960161      13.58855137       0.08777599      -0.21063272       0.18456583       0.02973245       2.94803187      -0.10449924      -0.52963834
Pb       7.21659578      13.76903096       0.02929594      -0.07281971      -0.02901226      -0.53040086      -1.33281876      -0.01041710      -0.54250248
I        3.36202443      13.79456928       6.72099988      -0.10473691       0.06795708      -0.06717557       2.65012871      -1.79348038       1.05301304
I       10.08151713      13.31611953       6.77776090      -0.01860093       0.00430448      -0.15858908       1.74538686      -5.13495384      -2.36214935
I        6.17882749       9.79207565       6.69587508      -0.13348368      -0.10314011       0.03714216       1.69232258       1.12524206      -0.79871503
I        6.55216998      16.35115771       7.13033542       0.32285699      -0.05473574       0.31163233      -2.45173484      -2.85541943      -0.20221147
I       10.36922260      13.07083155      -0.05489336       0.05997871       0.03046914       0.00671062      -3.30096787       2.78719510       2.50913986
I        3.71073848      13.84734857      12.70317242       0.37309015      -0.15959096      -0.00060124       0.47064569       2.75197817      -0.14877972
I        7.44681614      17.27444594      13.31007749      -0.29372194       0.04266520      -0.19494167      -1.07126439       1.23016887      -1.35788662
I        6.39931261      10.31146934       0.13093803       0.15076002      -0.03254869      -0.02063389      -0.96620778      -0.60603283       1.52765387
I       14.00686704      13.21135905       9.85253545      -0.00351527       0.16394004       0.12248424      -1.48431028       2.22900624      -0.44655292
I       -0.00284176      14.02243939       3.30064757       0.01169970      -0.15175154       0.11317940       0.59917583       0.20346149      -2.53991173
I        7.29530415      13.54928009       2.91237804       0.11252203       0.04664583       0.48273197      -2.58346440      -2.86029720      -1.46613623
I        7.02548237      12.79947391       9.50249739      -0.11749840       0.02561501       0.40118740       4.08523844      -1.84760575       1.95814577
N        9.61850600       9.29747013      17.06831950       1.05204216       0.17109832       0.17780495      -0.08948734      -0.32900903      -0.32708661
C       10.62594345       9.88392458      17.99104060       0.21179598       1.21768208      -0.39674520      -0.80826788      -0.39068880      -0.22711763
H       10.09082973      10.55453329      18.65871588      -0.35011441       0.01870529       0.37705616       0.19530150      -0.23128727      -0.11695368
H       11.30825719      10.58384191      17.43798501      -0.24508016      -0.94092885       0.13150076      -0.24448991      -0.02399124      -0.02013563
H       11.11725155       9.10987840      18.55136896       0.46217472      -0.45296341       0.21083755      -0.06516844       0.10043882      -0.00103275
C        8.97700747      10.33370249      16.31594491      -1.31969073       1.62602364      -0.77480021       0.43123738      -0.52322192      -0.63902675
H        8.62573925       9.98060961      15.36767326      -0.21549775      -0.63132148      -0.75366272       0.27395108      -0.08887894       0.33996228
H        9.69673192      11.12013335      16.07132982      -0.13339450       0.20906126       0.35077920       0.12242468      -0.11863454      -0.11930974
H        8.03763984      10.66957053      16.81619600       0.78359899       0.26028926       0.04024963      -0.06049440       0.18743598      -0.15274657
H        8.87790923       8.85470844      17.61720901      -0.28997188      -1.00025851       0.16090477      -0.29654127      -0.26029534       0.09385160
H       10.04220570       8.64541318      16.38889391       0.07434840      -0.39946361       0.37372535       0.26024347      -0.06277588      -0.01064650
N        3.38616410      15.97812775      23.40133868      -1.12868242      -0.54374694      -1.43776262      -1.46561375       0.20783925       0.48760944
C        3.56006309      16.78317233      24.61794910       1.31061356      -1.80351781       1.29697318       0.31569900      -0.11972035      -0.11107983
H        3.70795317      16.05075857      25.47746517      -0.10928126       1.00208688      -0.66346862       0.25970572      -0.15449577      -0.04314418
H        2.63950277      17.30361977      24.74322950      -0.75610537       0.82386496       0.41322744      -0.02223076       0.25037492       0.17749486
H        4.43661450      17.44947612      24.51136745      -0.33613518      -0.14359891       0.08164720      -0.13744129       0.21223898      -0.09279680
C        3.21088189      16.97320545      22.27796280      -1.14213296       0.48173565       0.69806378      -0.36318052      -0.64014371       0.09117015
H        2.20906967      17.40654144      22.49597552       0.30465413      -0.06718912      -0.51370095      -0.07176517       0.10178166       0.07688570
H        3.27350877      16.64598813      21.24689514      -0.03637555      -0.81343603      -0.11375657       0.09891110       0.26718177      -0.09343357
H        3.90085198      17.79611300      22.40355635       0.61470572       0.19337887       0.18278636      -0.00562655       0.20009497      -0.00044188
H        2.45236453      15.40791216      23.48203914       1.16144998       0.44429221      -0.03781706       0.20216686       0.12576583       0.41023698
H        4.13161670      15.26929348      23.22351773       0.09889778       0.39213104       0.10120053      -0.00022506       0.05323940      -0.27737681
N        4.30865938      10.52848149      23.15339768      -0.45264623       1.34523611       0.55328286       0.37741070      -0.36559572      -1.09400102
C        3.72820175      11.54417225      24.11406893      -1.10103532      -0.86843553       1.27672200       0.36646759       0.32382952      -0.51150295
H        2.76291109      11.91970189      23.70102474       0.44877299      -0.38723850       0.01092912      -0.15418880      -0.10015928      -0.20265987
H        4.28786789      12.41704663      24.44523784       0.94073873       0.03957915      -0.65665839      -0.04041458      -0.35622902       0.21112724
H        3.53106032      11.00918014      25.09890547      -0.04215254       0.25590847      -1.10564612      -0.01366855       0.13897135       0.10980610
C        3.19168816       9.71051058      22.56745527       0.10286837       1.07674285       0.47934395       0.75495276       0.74899380      -0.79808581
H        3.65042712       8.96756225      21.93079282      -0.17392603      -0.49746779      -0.23840937      -0.04184288       0.12115234      -0.01772816
H        2.48091122      10.38697528      22.02368191       0.68826662      -0.42148918       0.20973903       0.09480146       0.19871852       0.05409310
H        2.66585346       9.33767291      23.43623471      -0.30625655      -0.65477735       0.10731576       0.22166924       0.22097877       0.05138479
H        5.05472586       9.96728594      23.65180117      -0.43628261      -0.17758181      -0.38478954       0.02982468       0.02770557      -0.06078177
H        4.77521748      10.97773367      22.35242691       0.42783099       0.27747298      -0.09588503      -0.16386894      -0.09443028       0.23947478
N        9.23851591      17.78822403      17.14602062      -0.92887356      -0.58626066       0.89021461       0.04213490      -0.38407917       0.43211312
C       10.21265723      18.84427558      17.46500052       1.56512959       0.53590712       0.86818659       0.03811653      -0.80533482      -0.38745925
H       10.99174866      18.32660552      18.05546222      -0.12997401       0.40286201       0.24335315      -0.05957518       0.20933868      -0.05562423
H        9.76066521      19.68971003      18.04086536       0.16495204      -0.71540853      -0.29340864       0.16200975       0.15034303      -0.11366197
H       10.80925509      19.27164670      16.62292424      -0.96426916      -0.42349819      -0.17968176      -0.31688140      -0.15562125      -0.11155959
C        9.55227558      16.97266181      15.96793554      -1.25702482      -0.34862946      -1.01725553      -0.41522758      -0.42078893      -0.54294391
H        8.72838195      16.23662133      15.84154397       0.51098341       0.35157514      -0.09674886      -0.16121995      -0.03966881       0.05396417
H       10.46185586      16.45161049      16.10056233       1.15165292      -0.74364258       0.69462902      -0.14869505       0.10748688      -0.04854228
H        9.72112090      17.54584796      15.05760572      -0.39808288       0.55220417      -0.02739633       0.07111127      -0.14809976       0.09953295
H        8.26841492      18.16227213      17.22953852       0.03877151       0.22516179      -0.86821609      -0.04359417      -0.04315554       0.13776893
H        9.14907606      17.06336603      17.90841083       0.47429931       0.65249718       0.00147134      -0.03598581       0.05641872      -0.00004302
Pb      -0.06358518      13.43348330      20.20385362       0.02790529       0.21990013      -0.16258100       1.41492382       3.96879504       0.29358570
Pb       6.64654146      13.97537750      19.74007464      -0.02979398       0.10562568       0.17763875       2.11843726      -3.22074936       1.61703827
Pb      -0.69616596      13.51006185      13.25617766      -0.01448738      -0.71152595       0.07749384      -0.31810433      -3.43595566       0.42664588
Pb       6.89659682      12.87715765      13.01955707      -0.33227866       0.01608481      -0.06355906      -1.68498663       0.74950094      -2.45555880
I        3.12560999      13.81260830      19.99990336       0.14816278      -0.06844019       0.06057611       1.19462577       0.68849826      -1.15516981
I        9.89508749      14.24634372      20.01169304       0.03224104      -0.07975796      -0.02057422      -2.03141578      -0.96766709       1.74564233
I        6.55797154      10.77375850      20.32892177       0.13050107      -0.08248093       0.01396088       1.47787214       1.87356499      -1.55302873
I        6.81892733      17.22134479      19.89606881      -0.14095766       0.06793560      -0.10574564      -1.01910524      -0.75422339      -3.11612788
I       10.07291437      13.52914499      13.48368966      -0.03994454       0.02032282       0.00533329       0.01024412       1.58500806       2.46773150
I        3.70759283      13.98184869      27.72091285       0.04299680      -0.01175696      -0.09470283      -1.13359927       1.23879797       0.80804753
I        7.27645354      17.36055284      26.94292394      -0.18366501      -0.00793378       0.09761452       0.67208661       0.25658786       4.67809120
I        5.73612530      10.04796077      13.61019732       0.34584652       0.22653065      -0.17200077       1.25216674      -0.08464401      -0.85301611
I       13.63138823      12.94392518      24.19617154       0.04314864       0.13496886      -0.03492180      -1.03035638      -1.55584614      -1.19870165
I       -0.62652042      13.32950363      16.82329480       0.15866787       0.26102567       0.04934898       2.84836557       1.60092366      -0.16722047
I        6.61311946      13.92126219      16.67941509      -0.06341876      -0.05240606      -0.22257623       1.66286452       2.60731451      -0.79030563
I        6.81045689      14.10441532      23.43398848       0.05993063       0.06216395       0.00589103       0.19795900       4.26982916      -2.47638923
N       17.11752906      17.50890645       3.17612813       0.51246624      -1.58382193       0.60077479       0.07686304      -0.15877868       0.63805110
C       18.28804072      17.52879082       4.12463631       1.40442823       1.99221492      -0.85866002      -0.09568343       0.39759346      -0.60771241
H       19.19915222      17.76089843       3.43388265      -1.17721047      -0.78026973       1.36586735       0.09744878      -0.08284278       0.12745905
H       18.41719966      16.69444457       4.84371733      -0.32904459      -0.22715710      -0.88231478      -0.00557783      -0.22787182      -0.02168071
H       18.13940237      18.43675460       4.77240958       0.08282953      -0.46228563      -0.47191508       0.06996652      -0.20712263      -0.05750091
C       15.83560503      17.36742106       3.92891119      -0.50884672       0.59297869      -0.04174736      -0.47714389      -0.45729894      -0.28981064
H       14.99156812      17.24377017       3.22952926       0.32752021      -0.48340378       0.12767206      -0.14449288       0.12561738       0.29887891
H       15.62467047      18.32557736       4.41968363       0.25984407       0.09867028       0.09279812       0.08972118       0.01307986      -0.31578643
H       15.91240918      16.60838046       4.73891919       0.05692720       0.04156028      -0.77623783       0.09751664       0.16845680       0.01716176
H       17.26306363      16.79484833       2.43357828      -0.22048291      -0.44036638       0.56195061       0.16551186       0.13127774      -0.03567755
H       17.18302914      18.32622531       2.55583834      -0.37831050       1.13554533      -0.00427109       0.01606459      -0.01725856      -0.17522788
N       10.17639003      22.82812365      10.50897127       1.16604211       0.73683192       0.88170982       0.02817724      -0.25767202       0.52164793
C       11.51434386      23.55202423      10.40153525       0.85124972      -1.80837774      -1.11363302       0.00529875       0.26263416      -0.42277425
H       11.58903526      24.20776105      11.23238159      -0.02319762       0.91818172       0.84612477      -0.24319883      -0.21944880       0.00727151
H       11.55246302      24.10312895       9.43621435      -0.05632543      -0.32970274       0.49284223       0.08884604       0.01120260      -0.07177777
H       12.39428557      22.79456601      10.48396563      -1.41897440       1.03453137      -0.24291536       0.10526041      -0.04364069      -0.22110617
C        9.06083828      23.63593666       9.96844049      -2.04804052      -1.60671370      -0.43766559       0.24803817      -0.07726696      -0.00268838
H        8.13119142      22.97870082       9.91256495       0.96981537       0.50576090       0.16099786       0.04182720      -0.09658664      -0.20424243
H        9.19366012      23.97972318       8.92470083       0.65924496      -0.03464946       0.46173695       0.23404061       0.13937514       0.13851841
H        8.78987717      24.42902922      10.63343134       0.27545379       0.86031617       0.52598037       0.02095469       0.16199813       0.02762830
H       10.10651477      22.50034221      11.52764499      -0.48700716       0.51335834      -0.59732754       0.00373930       0.20953365      -0.20134187
H       10.20153890      21.95558407      10.01073515       0.19612067      -0.84059600      -0.89780861      -0.04530735      -0.10533999       0.27601900
N       11.41265470      17.96857415      10.19354566       1.65625156       0.77467655       2.04051156       0.38540440      -0.29708255      -0.40651948
C       10.16189098      18.77089006      10.34330086      -1.44049161      -1.05522573      -2.09469471       0.62674124       0.16447313       0.42351755
H        9.37811448      18.14184502      10.85849977       0.74331223       0.46850805      -0.43368158       0.08843431       0.06268635      -0.14416636
H        9.78546098      19.08345056       9.27942819       0.52142570      -0.62440326       1.61781539       0.31338012      -0.12713920       0.09881824
H       10.32873730      19.66130960      10.90431212       0.38782302       0.77604258       0.63309271      -0.28172194      -0.05254334       0.16874157
C       11.25207212      16.48351896      10.17550055      -0.41008759       0.60205759       0.40839960       0.22335893       0.52892561       0.42974443
H       10.67796100      16.21634366      11.08241471       0.03494733      -0.16982761      -0.53125264       0.14797856       0.19493024      -0.14542409
H       12.20049107      15.97527651      10.13768552       0.69513738      -0.08703783       0.32279446       0.39731984       0.11913496       0.06694670
H       10.79831141      16.25722900       9.23182262      -0.94890895      -0.44054089      -0.46247270      -0.15990722       0.01743128      -0.08672214
H       12.06197502      18.20589273      11.03322021      -0.92439139      -0.35771233      -1.02993522      -0.26443597       0.23660568       0.02752443
H       11.99663254      18.28104209       9.38943742      -0.19780595      -0.10477716      -0.30859193      -0.06172431      -0.04033642       0.09339279
N       15.80965773      23.85374330       3.12250020      -0.11351057      -1.06281810       0.06537047      -0.36695401      -1.46057995      -0.53163595
C       16.66179013      22.69495410       3.44458907      -0.47952469      -0.44903591       2.06177916       0.90473779      -0.25037794       0.87982270
H       17.24029875      22.91289934       4.39259179      -0.47623969      -0.08867999      -0.90877697      -0.07213175       0.08116874      -0.08204331
H       17.31432536      22.47675485       2.64037946       0.88495306      -0.04266203      -1.04493597       0.05771652       0.18126243       0.17325398
H       16.04970077      21.79783966       3.63463053      -0.06800511       0.25796918      -0.05367853      -0.21015618      -0.07218461      -0.10398388
C       16.64389917      25.00294302       2.93173490       1.25111877       1.62392603       0.57273910       0.45011900       0.65898741      -1.17789907
H       17.28615282      24.98640785       2.01826144      -0.66109114      -0.27080297       0.35618807      -0.17340528      -0.09955381      -0.01037034
H       17.30064763      25.10603366       3.80743148       0.15636694      -0.17133849      -0.04014992       0.22100226       0.14094064       0.01841564
H       16.01916669      25.88646674       3.00405204      -0.25605657       0.41656718      -0.54589895       0.19298487       0.12302713      -0.07815755
H       15.07709222      23.99093573       3.87812072       0.31448388       0.13730597      -0.10245776       0.17687112       0.05198110       0.00447626
H       15.29514642      23.72106579       2.22406822      -0.36148350      -0.32037151      -0.31384935       0.14085482       0.05087188      -0.19378799
Pb       6.86552250      20.40450385       6.93305842      -0.13172593       0.20835691      -0.24407527      -1.71629744      -0.08693448       0.35878197
Pb      13.48092172      20.60381047       6.36088326       0.05073462       0.14209082       0.35686826      -0.05135344      -0.30335339       2.40491479
Pb       6.79567448      20.45682292       0.01782800       0.07995330      -0.16520176       0.07603267      -0.10575399      -1.69000660      -1.13921914
Pb      13.47067930      19.97950421       0.00803677      -0.00001293      -0.11988350       0.04251774      -2.68150611      -0.86878489      -1.22977590
I       10.33895546      20.85391941       6.87326666      -0.02069162       0.03368696       0.02308909      -0.24524141       0.87391045       0.72820370
I       17.22555601      20.23860558       6.76756963      -0.07155970       0.21087013      -0.00082027      -1.61085538       1.48049033      -1.17964377
I       13.29563785      17.49925097       7.16271913       0.10957629      -0.21923213      -0.02569656      -0.14504630       2.30221148       0.54018162
I       13.85776174      23.94123167       6.08802164      -0.10624834      -0.17847261       0.09823658       0.65495306      -2.08835203      -1.05661432
I       17.05781730      20.01855377       0.51695421      -0.05816573       0.02131116      -0.09376060       1.28304053       0.22226972      -0.99200280
I       10.40507679      21.00790251      13.82542459       0.03725616       0.02338219      -0.15935543      -1.34686327      -2.94824090       0.06154914
I       13.70350926      24.11517783      13.80536513       0.01222231      -0.11165195      -0.12541482      -0.95439168       0.04735429       1.87174641
I       13.37165031      16.92201002       0.36439065       0.18920260       0.15430250      -0.26682449       0.47369595       2.74030206      -1.96839587
I       19.95976227      21.33712876      10.67078013       0.11584498      -0.30735259      -0.07153064      -0.83576113      -1.82222785       2.02494409
I        6.98910278      20.44336200       3.66726702      -0.05523410       0.04255393      -0.23949354       1.99728850       2.12126321      -0.66912663
I       13.36434301      20.46411215       3.42082449      -0.08908546       0.02684282      -0.22661783      -0.74079243       0.14817701      -1.21133240
I       14.22859963      20.47350546      10.64158310       0.01475987       0.04868050      -0.08055016       0.20884490       1.67778732      -1.24198269
N       16.76853263      16.96136545      17.95088551      -0.48825188      -0.85687169      -0.89899438       1.09818144      -0.19323919      -0.52566933
C       18.01146014      17.29662036      17.21375996       1.16493392      -0.48976072       1.39350181       0.31575838      -0.53636249       0.91105692
H       18.70212862      17.85065836      17.91033472      -0.47088275      -0.50501371      -0.50245880      -0.17317091       0.11690601       0.02902224
H       17.73773192      17.95126612      16.42903421      -0.16965406       0.66021886      -1.20089224      -0.18352661       0.17474090       0.13086477
H       18.51722535      16.34524425      16.89026067      -0.48433161       0.72858225       0.01937760       0.07719355       0.01549479       0.03387248
C       15.68117710      16.42618700      17.10393040      -0.60157739       0.91106968      -0.57541882       0.13613742       0.15184335       0.16588453
H       15.42873021      17.23087503      16.40605031       0.04481769      -0.13395305      -0.25963426       0.12221658       0.06290234      -0.29927959
H       14.75838947      16.19599086      17.63245079       0.03857586       0.09951348       0.66702784      -0.07562109       0.02633036       0.30787131
H       15.95847147      15.53742287      16.58876256       0.70078932      -0.73757657      -0.51192781       0.08127593      -0.23455110       0.07451813