320
Lattice="25.408611547603623 0.32397133546482454 0.10066012431915958 0.2932812183594963 25.28977233873254 0.16489848743554075 0.11949961242016688 0.1157114558099218 25.2467153059295" Properties=species:S:1:pos:R:3:forces:R:3:momenta:R:3 energy=-904.4719848632811 stress="0.00031555074383504694 5.720627086702734e-05 0.00023635775141883641 5.720627086702734e-05 0.0005508888862095773 0.00033642511698417366 0.00023635775141883641 0.00033642511698417366 0.00019360279839020225" pbc="T T T"
Cs       9.73591349       9.72769477       3.18988989      -0.10016367      -0.11818721      -0.20461051      -5.58559703      -0.75905441      -1.53871119
Cs       3.98117065      16.26125486       9.57211127       0.06067984      -0.06615239       0.00661242      -1.66986863      -0.43933702      -0.57588302
Cs       3.67166645      10.55161952       9.06260806      -0.00321813      -0.23791813       0.07592023      -0.08155785       0.92586428      -1.42845317
Cs       9.98398975      15.36794513       3.78257629      -0.09837410      -0.03383281      -0.11293484       1.32870097       0.30091360      -0.67194348
Pb      -0.21810503      12.72335294       6.43846904       0.30332780       0.03847121       0.00261862      -1.99285490       5.18500755      -2.45285107
Pb       6.37924698      12.56314946       6.43547942       0.31239604      -0.03562985       0.08346276      -0.17580415      -1.85564820       3.40422501
Pb       0.21832588      12.71689608       0.26392794      -0.17726936       0.18219402      -0.29348127      -5.01753635       1.04969097       3.88976013
Pb       6.61493697      13.08934295       0.05240125       0.07360466      -0.24918179       0.09602563      -1.46990521       0.92301712       1.15154445
I        3.43490273      13.43501172       6.68112323      -0.18736967       0.15396692      -0.06179918      -1.04197502      -0.26698517      -0.16731619
I        9.59195472      11.54709657       6.17397751       0.22850192       0.37153783       0.28487937       0.23982867      -1.24619029       1.74540897
I        5.80285313       9.57885733       5.75915048      -0.10927659      -0.12783548      -0.01482514      -2.07892653      -4.11607230       0.61822692
I        7.19351370      15.84694312       7.09493859       0.00749035      -0.01724540       0.03097143       1.42023291       1.31086099       0.77184430
I        9.66154059      12.33869728       0.39983048       0.23605550      -0.00360763       0.03745441      -2.55009360      -0.95068246       0.24696713
I        3.61014457      13.44472955      12.64151068       0.39288762       0.08548471      -0.00646091       0.34359177      -0.30680583      -0.38624996
I        6.78062384      15.77790196      12.10842679       0.18652212       0.22140622      -0.02470430       0.15587130       0.36850270       2.69126056
I        5.82853984      10.01515060       0.75674102       0.05052481      -0.40080703      -0.07990071      -0.53970050       0.22240348       0.44926095
I       12.18330459      13.60623346       9.91221704       0.00555406       0.03135899      -0.12836147      -0.02997781      -2.18889544       1.01915678
I        0.47667824      12.36086176       3.34801145      -0.10423877       0.04418624       0.06925758       0.98037630      -0.63874871       0.89897388
I        6.70372803      13.18930539       3.51248807      -0.07491962       0.19957895      -0.33502269       3.04591889       1.36274489       1.83413089
I        7.14421998      12.01829316       9.69668876      -0.00305640      -0.10423504      -0.22062522       2.84255963      -1.61136821       1.98662651
Cs       9.52767597       9.59607294      16.48710298      -0.01097568      -0.05549521      -0.05960411       2.76090964       2.64220967      -1.88007528
Cs       3.83303751      15.64730166      22.25376647       0.00623274       0.15395753      -0.15253189       5.05582987       1.38955336       0.78923972
Cs       3.74518117       9.70147593      22.43950405       0.15418177       0.02117257       0.02230458       0.09283425      -1.53426216       0.66179208
Cs      10.09122984      15.55532667      16.42539765      -0.28751033       0.06335744      -0.09194992       2.48619989      -3.16634705      -1.07424078
Pb       0.44270375      12.98572292      19.16191008      -0.08946492      -0.17530441       0.16213915       5.46940619      -0.60799560       3.96126835
Pb       6.75325412      12.64572934      18.97600203      -0.09032398       0.04763629       0.02524632       1.26747037       1.82451415       1.49454354
Pb       0.74867735      13.06602333      12.74790859      -0.47634998      -0.11915574      -0.10138956       1.71041408       0.76019453      -3.80199181
Pb       7.01773901      12.38777879      12.69757218      -0.43904393       0.63265528       0.08247670      -1.63323437       0.17055085      -3.67940923
I        3.54080009      13.28304338      18.90660335       0.03301922       0.04619736       0.04715729       4.32970748       2.91159044      -2.75366005
I        9.92811435      12.50060908      18.81603255       0.08031670      -0.13955921      -0.01566617      -1.64291609      -0.17089917      -0.71823484
I        6.40434904       9.48269624      19.25422935      -0.06673618      -0.00216933      -0.14938016       0.75182547      -0.21407138      -0.18386876
I        7.61723605      15.79570569      19.34837511      -0.03942429       0.22371856       0.14964099       1.62720952      -2.13219099      -2.45895059
I        9.79528611      11.93401505      13.52400823       0.47824214      -0.02642156       0.12663665      -0.95185499       1.72336078      -4.08065797
I        3.57618254      13.50777536      25.23435452      -0.18820968       0.08646462       0.13170652       3.57853887       1.05945083       2.18441581
I        7.66603173      16.06103382      24.74878670      -0.07717539       0.33037381      -0.02107525       1.61719962       0.85011845       1.79044711
I        6.07523501       9.85325908      13.86167611      -0.15183256      -0.59247637       0.05062255      -1.01032289       2.27396465      -0.51604204
I       12.62851167      13.53648211      22.29548036       0.13128403      -0.26931250       0.26428823      -0.70391832      -1.48381979       0.99088239
I        0.25867394      12.74375881      15.84964378      -0.07134396      -0.01970594       0.12924251      -0.00934008      -1.25748526       1.56692648
I        6.52912427      13.47622691      15.84945410       0.04260859       0.04854355       0.09133340       0.03805801      -1.96060451      -0.95738861
I        7.03155747      12.40907678      22.21321390      -0.11983080       0.02413449       0.02782674      -3.58722301      -2.29831546      -1.16920819
Cs      15.57840115      15.44968347       3.30604185      -0.20265945       0.18926521      -0.05021460      -0.35064940      -1.03436745       1.10411085
Cs      10.56742246      22.36408506       9.21369259      -0.00737031      -0.02539926       0.05595638       0.03226515      -0.80268820       1.80702208
Cs       9.90871607      17.03182618       9.36306112       0.04795682      -0.16361098       0.18511006       0.20630988      -1.73550159       3.95771562
Cs      16.21214684      22.03266084       3.73305017      -0.27725941       0.03833313      -0.15806147       0.98658820       1.47611716       5.18509731
Pb       6.82189938      18.86772954       6.33256185       0.02173814       0.09828925      -0.02878834      -0.55388878       1.42449416      -2.93632158
Pb      13.90131326      19.14470144       6.46128082      -0.13490204      -0.32676500       0.10378529      -0.56929503      -3.11787575       1.05968430
Pb       6.60951452      19.23290363       0.13674122       0.22951162      -0.22725030       0.10078718      -0.04594947       3.54008572      -0.43054729
Pb      13.28530455      19.40801646       0.24781323       0.14301292      -0.14860838       0.06937528       1.67476981       0.80880876       3.72093902
I       10.54208867      19.36161041       6.54164998      -0.18909889       0.12268498       0.05750890       2.58230285      -1.30281934       0.67110413
I       16.91614908      18.03930743       5.85356917      -0.20543691       0.09133915      -0.04044926      -2.88830547      -0.78972567       0.30165416
I       12.90454934      15.97054825       5.95442492      -0.02241432      -0.14206332       0.04868715       0.97897752       0.01202303      -1.97755478
I       13.89112703      22.11225686       7.06679938      -0.00382109       0.29832413      -0.05753699      -0.03853028       0.62509871      -1.25772307
I       16.33225512      18.41161860       0.34756505       0.27597240      -0.08885640       0.18980598      -2.39111381       2.42533263       0.05837073
I       10.00624758      19.95167906      12.13617172       0.14328335      -0.19156873       0.04837724       2.17655843       1.46827167       0.66521474
I       13.65924562      22.10244933      12.51699644       0.13398963       0.09770922       0.05684071      -0.22284671       0.55363841      -2.46362165
I       12.44428601      16.17898520       0.43688914       0.01606576      -0.22258464       0.12519168       0.37624931       0.20175941       2.00026644
I       18.33642943      19.41753765       9.89420222       0.13084967       0.25725194      -0.05225566       1.45882527      -0.63326688      -1.40493753
I        7.54355330      18.15897319       3.35079799      -0.10807419       0.16774078      -0.19119211      -0.21247569       1.04914891      -0.94631303
I       13.05984164      19.30028967       3.43658076       0.09287102       0.19544094       0.00746410       0.73406897       2.24452566       2.61743729
I       13.58758919      18.21974197       9.77957390       0.00317678       0.11590652      -0.08376856       2.61101795       2.79999414      -0.69313549
Cs      15.99858130      15.80187142      17.00899520       0.00952383       0.11225487      -0.21636485       0.26769592       0.29693983      -0.79176990
Cs      10.40033787      22.24135490      22.49234318      -0.17982971       0.16910666      -0.20004170       2.87816514      -3.59522940       1.50902799
Cs      10.47969550      16.32846642      22.18900568      -0.19569874       0.21142748       0.02850406       1.36972856       1.35201051      -0.12043070
Cs      15.81990489      21.76220230      16.12256177       0.09830573      -0.00231819      -0.08078745       1.66928172       1.87135002       0.99578832
Pb       7.12566538      18.94842889      19.27021365      -0.03771849       0.04290054      -0.32186572      -2.06839762      -3.96197113       1.52117369
Pb      13.40063059      19.35651268      19.20067640       0.08292753      -0.03974332       0.02244267       3.85133127       1.47609947      -2.96987843
Pb       6.86021168      18.99064497      12.63455885      -0.04283259       0.15873410       0.04972447       1.31336942      -3.56925368       0.31568139
Pb      13.11996756      18.99573023      12.76218354       0.01189852       0.14565797       0.12978430       1.56458569       1.22365641       0.85974502
I       10.43419352      19.77953003      19.71822414      -0.32233570      -0.06230035      -0.02316264      -2.48652624      -1.78650759      -0.34808455
I       16.73764782      19.05576802      18.94554034      -0.17840146      -0.14023459      -0.03107801      -3.05202888      -2.61832527      -1.38777763
I       12.64510016      16.08966555      18.88714359       0.20835301       0.16547091       0.20851481       2.95242359       1.74111916       0.60226468
I       13.95771188      22.77238308      19.56307578       0.10136884      -0.57444611      -0.02918924       0.57860673       2.27855540      -3.48579606
I       16.51417922      18.23631219      14.05808722      -0.13570787       0.12165689      -0.11138298       2.55364162      -4.58940130       2.22217323
I       10.42697033      19.65479501      25.03799208      -0.60360522      -0.08027337       0.04685674      -7.06734136       2.40698377       0.63744958
I       13.18654596      22.60115404      24.65502171       0.37956416       0.14917749       0.23466514       2.02918516      -0.43497953      -0.77333914
I       12.02306123      16.12486678      13.43520135      -0.00104257      -0.12115815      -0.10374524      -0.45710366       1.67937269       1.49061052
I       19.54687527      19.92664326      22.54509850      -0.02277330       0.01839650       0.08768428       2.03014776       0.51483633      -2.83296670
I        7.26972819      18.79896879      15.82268865       0.07825923      -0.03583015       0.01353621       3.24530053       2.08620674      -3.16211434
I       12.66844506      19.22107288      16.11745706      -0.00218063       0.21820292      -0.04743664      -0.31005135       2.80657629       0.93462845
I       14.22779442      19.44294137      22.45208635      -0.10272913      -0.31285979      -0.33814288       2.11422926      -2.34593461      -1.85052030
Cs       9.65414675      21.70860548       3.08989226       0.00528850      -0.05698785       0.09101417       2.17530468       0.05449775       3.64941468
Cs       3.76435630       3.74707356       9.33174071      -0.00610939      -0.08418505       0.05499934       1.56155557       4.08967614       0.72633255
Cs       3.97892058      22.98020450       9.77591626       0.14759764      -0.08150028       0.12791523      -0.78425433      -2.89812660      -1.45766339
Cs      10.04461540       3.23349240       3.24911421      -0.35160344      -0.13648411       0.06981446       1.18399239      -3.56304362       1.13585396
Pb      -0.09934536      -0.03859597       6.00592425       0.14179078      -0.22241745       0.12515708      -0.32950521      -3.72519390      -1.39449888
Pb       6.81756445      -0.09564913       6.36385539      -0.27981161       0.25286543       0.04738972       0.40476571       0.07461935      -2.21220772
Pb       0.15208227      -0.19077255      -0.29953301       0.37019363       0.08893096      -0.03704551      -4.97408461       2.45988825      -2.18209469
Pb       6.54352820       0.35863845       0.07086012       0.13294509      -0.05472234      -0.07711865       0.26786732      -2.45942437      -1.27026635
I        3.55587715       0.03062826       6.64851871      -0.01058782       0.15134485      -0.13571367       1.54898055       0.44287931      -0.32727296
I       10.11808788      24.84799971       6.05525025       0.24011290      -0.02587300      -0.15919531      -3.49199303       0.48623313       2.16277851
I        6.83616856      22.20487271       5.79287912      -0.04790926      -0.12051599      -0.12614041       0.78995516      -1.18423024      -0.12003435
I        7.17399286       3.29127343       7.33669723       0.02852211      -0.09142299      -0.06746430       1.08841701      -3.50288178       2.43714747
I        9.89236248      24.79578845       0.93095638       0.22606230       0.10928767       0.02602795       1.19111206      -2.10571981      -2.42989388
I        3.63945517       0.45219104      12.28657682      -0.11490498       0.08329618      -0.02523898       1.82551047      -0.66257049      -2.94396661
I        6.99323829       3.43644275      12.14621939       0.08961369      -0.01285167       0.05599092       2.28625527      -0.20998547      -0.86370337
I        6.45071862      22.29167790       0.72674521      -0.12394690      -0.08334404       0.04680943       1.02460823      -4.36284520       1.53206573
I       12.42648150       0.29119753       9.78166214      -0.04384256       0.07189529      -0.09091369       1.32433047      -0.64707426       1.56089517
I        0.86757068      24.78627451       2.98997448       0.05495362       0.03267243       0.31130502      -0.75631313      -2.69988272       0.01581057
I        6.22349193       0.96538791       3.07193136       0.11162832      -0.04550147       0.27167597       1.94242635      -1.61998728       0.16428250
I        7.69549617      24.80660796       9.68154546      -0.11819749       0.03544671      -0.07785476      -0.58578224      -0.94901795      -0.97517675
Cs       9.61568276      22.37349932      15.99408723      -0.00199166      -0.12138424      -0.05293520      -2.15194732      -0.18385496      -2.59396846
Cs       3.62516384       3.12720192      21.84165566      -0.00528290       0.20104410       0.06046842      -0.70997400       3.67066686       3.64507547
Cs       3.97721697      22.67522520      22.65016233       0.05997574      -0.02332018      -0.09601512       3.10703345      -0.46066202      -2.63921957
Cs       9.59649628       2.98974884      16.01170500       0.04959124      -0.02025136      -0.30663943       1.39293037      -0.97317854      -1.75190530
Pb       0.33028506       0.07740452      18.44167399       0.14542177      -0.16404929       0.40093437      -1.56072272      -1.10610746      -2.37771301
Pb       6.77584449      -0.17119277      19.13931872       0.04482932       0.05705005      -0.10022375       0.77310656       0.38817704       2.53460858
Pb       0.19713274       0.44452800      12.25477524       0.13276769      -0.02821898       0.05475322       1.52429705       2.85673472      -0.14006695
Pb       6.81256205       0.23805701      12.65368739       0.01926496      -0.04857666      -0.07691707      -1.57168543      -2.09579244      -2.10519782
I        3.68954149       0.56266613      19.22961312      -0.00397802      -0.03848161      -0.02097272      -0.26143144      -1.42995106      -0.52103180
I       10.43278314      24.43935054      19.18662378      -0.30378501       0.07219337      -0.20702785       0.39625840       2.33104299      -2.97857537
I        6.01184865      22.21721550      18.88207913       0.10403180      -0.20764844      -0.03071284       0.26745858      -0.14887712      -0.52248194
I        7.46145634       3.16769738      18.85523816      -0.26401121      -0.05528609       0.20706554      -1.35127390       5.18628198      -0.65463695
I       10.27464254      25.03310935      13.26387231      -0.01011975       0.01344522       0.15099364      -3.12550720       3.57999844      -4.31640137
I        3.54393145       0.95456163      24.83487610       0.09914481      -0.12079477      -0.02672800       0.52441901       0.88868935      -0.18187352
I        7.62524592       3.33653144      24.56012621      -0.06754776       0.22234981       0.09723239       3.20720509      -0.18096513      -0.31109097
I        6.73449008      22.14086158      13.05310690      -0.06184088       0.21908609       0.10505579       1.82449459      -0.59537462      -2.69850902
I       12.15325937       1.12372865      22.22049457       0.04851704      -0.03474683       0.20232670       0.37671216      -0.94079133      -0.45947628
I        0.96162591      24.86433250      15.69031021       0.08885473      -0.11363608      -0.30477829       1.03994606       1.84246134      -2.28098868
I        6.59716700       0.23781403      15.89310980       0.03211539       0.01105813      -0.13506858      -0.45874468       2.18850193      -1.23604542
I        7.50728348      24.63914156      22.32782304      -0.13755523       0.07025928       0.16168143       1.74310232       1.83883991       3.09074460
Cs      15.47643660       3.29522961       3.56552523       0.26173548       0.28425633      -0.07541953       0.08417125       1.11891117      -1.16415629
Cs      10.54728680      10.21252390       9.87713814      -0.08772036      -0.16545263      -0.09392329       1.80141957      -1.15604557       1.33595223
Cs      10.28548012       3.71938527       9.87505919      -0.14048948      -0.02162275       0.03714825       1.42373806      -2.61275766       1.70686330
Cs      15.90003810       9.41239333       3.36657659      -0.13346928       0.20364163      -0.15623184      -1.35885050       2.18895719      -0.48588820
Pb       6.71683371       6.17611197       6.28758948      -0.45841359       0.06675765       0.14696372       0.00796008      -0.53449837      -3.16246129
Pb      12.54003917       6.65713220       6.76197637       0.30060070       0.05399246      -0.02295248       2.75926336       1.18246053      -0.28950881
Pb       6.85981168       6.54053485       0.01363929      -0.24929622      -0.09670913      -0.01809388      -1.07155371      -0.51885952       0.40693084
Pb      12.71276896       6.64342223       0.55665294       0.22144022      -0.13449684      -0.70564652       1.83321239       1.97061309      -0.06854930
I        9.48103174       7.07928673       7.01587851       0.27466544       0.11248701       0.15897518       1.21693393      -2.46715098       1.52918781
I       15.65251954       6.68657394       5.52978472       0.20880007      -0.35867153       0.36303453      -0.01696173       0.19449964       3.83877543
I       12.41760722       3.49118385       6.18041363      -0.03485432      -0.06305045       0.13430878       3.18064851       1.30044131       0.88624501
I       13.49187621       9.80850352       7.08707473       0.01684374      -0.09990522       0.19221665      -0.60779944       0.92537789       0.73902745
I       15.96575491       6.35491760       0.88564322       0.01587254      -0.11347376      -0.16661516       2.11302373      -0.11481998      -2.06487011
I        9.66893769       7.09013883      12.27003436       0.04500850      -0.05241722      -0.01395386       2.32497338       5.22739362       2.88381771
I       13.28610743       9.89222195      12.46472015       0.11852437      -0.16611306       0.04479535       0.29491771      -3.11607414       0.53612219
I       12.36078341       3.35141447       0.48543238       0.10890853       0.14390809      -0.08617093      -0.48054678       1.17992657       3.60850637
I       19.11908543       7.11842597       9.68422486       0.00470171      -0.04660741      -0.27348865      -3.56529425      -1.98067818       2.13041392
I        7.09533968       5.90695012       3.20200995       0.13539423      -0.04223677      -0.16708717       0.86071166      -0.26047442       1.80266245
I       11.88534147       6.61207351       3.33966409      -0.13695615       0.12018984       0.53799831      -1.19140340       0.97746417      -1.39021303
I       13.35018461       6.14062617       9.83310919      -0.00278388       0.00618507      -0.12006755      -1.67336745       0.54381675      -3.42137210
Cs      16.16375655       3.52911392      15.72939535      -0.01687415      -0.04044372       0.05017665       0.95089741       3.00318095      -0.50347055
Cs      10.35368120      10.32887085      22.19335823      -0.03199621      -0.01807417       0.01640181      -2.10462517       2.49896145      -0.30281853
Cs       9.87199995       4.06857873      21.56642517       0.05099565      -0.12193745       0.26998419       2.16166006      -4.48393430       0.36410773
Cs      16.35023041       9.67812310      16.25498406      -0.10406054       0.00034355      -0.06425372      -0.61807617      -2.33566187       3.95202317
Pb       6.25950548       6.17745916      18.76117248       0.19694759       0.18797425       0.14326500      -2.02052855       2.76757526      -1.89893628
Pb      12.87710701       6.80405208      19.18939783       0.09087965      -0.46157192      -0.04873258      -0.65905015      -2.37482759      -1.51285385
Pb       6.43585909       6.72184274      12.91562954       0.10098722      -0.06063729      -0.22097733       0.48327108      -0.18919319       0.48336242
Pb      12.84149993       6.54660113      13.09930373       0.06598999       0.14548811      -0.11152283      -1.75191161       2.01766183       0.24068593
I        9.76886461       6.85825298      19.32689835      -0.04880355       0.24074020      -0.01692068      -3.47301705      -2.19921316      -0.94709497
I       16.20962147       6.22249434      18.59511810      -0.00608142      -0.02807996       0.05302088       0.74597342       2.26085577      -0.18647221
I       12.42701589       3.38262028      18.38060467       0.04019510       0.37921161      -0.03756120       1.36992744       0.43351677      -1.87777285
I       13.49541170       9.67194104      19.72964746       0.14386093       0.28918743       0.16426064       0.47451324      -1.27263406      -3.21408947
I       16.03852993       6.05736204      12.92461988      -0.04354386       0.13273212       0.06266538       2.84729231      -0.66209824      -2.74650673
I        9.82274226       7.28208735      24.37862620       0.10528802       0.00875336       0.06266198       0.24190165      -0.58254068      -2.28991340
I       13.10903034       9.84470818      25.12676166       0.18051100       0.13585596      -0.03679965       1.24513010      -2.38442058      -0.97022378
I       12.46278043       3.22313119      13.34823908      -0.13561290       0.55875325       0.08060740       0.67931217      -1.68662043       0.09868054
I       19.20803553       6.97143116      22.09782494      -0.00035221      -0.02871821       0.38344514       2.54945873      -0.09657324       0.59664123
I        7.51611113       6.43937132      15.85707745      -0.03737458      -0.14611459      -0.07992102      -4.12201061       1.34099780       1.14256366
I       12.78944913       7.60761250      16.15053323       0.04125878      -0.04155003      -0.29617911       3.01187496      -2.43274454      -0.73798968
I       13.28084682       6.36265446      22.32475656       0.12809482      -0.12597612       0.03279758       1.22971103      -0.70460419      -0.40593417
Cs      21.78229355       9.33778197       3.03076010       0.10070850       0.04718720       0.03531514       2.03667183       1.76070506      -1.27181292
Cs      16.57761733      16.09118448      10.25575360       0.02020626      -0.04560453      -0.02823767       1.78312947       2.12268532       1.74185590
Cs      16.24595435       9.35387918      10.16470838      -0.04068747       0.13577018      -0.06456657       0.00079123      -0.48770701      -3.09644020
Cs      22.29629073      15.39170394       3.20555853      -0.12803749      -0.02342409       0.11817267       1.94246372       2.86057825       2.80994685
Pb      12.86157504      12.86608248       6.69569734       0.06294261      -0.05365548       0.09743178      -1.62814535       1.93292240      -0.20389645
Pb      19.10809432      12.71874376       6.24625927      -0.00668522       0.38986101       0.39237387      -0.91361726       5.85062142      -0.97807632
Pb      13.05199837      13.01211348       0.26897128      -0.39061040      -0.03393995      -0.05225032       0.91481333      -0.34691084      -1.70084888
Pb      19.03789232      13.30470784       0.01053689       0.39798242      -0.18002285       0.19026146       0.47587029       3.93585288       0.29460461
I       16.22070526      13.39105291       7.67684511      -0.20617885      -0.10984211      -0.31319395       0.78074251      -0.35923233       3.05083136
I       22.39043277      12.05811849       6.54452268      -0.27932957      -0.00412280      -0.12779790      -0.89786450      -0.34880615       3.07688122
I       18.96180182       9.83406905       5.45706145      -0.09114241      -0.31291649       0.06161680       3.90169936      -0.63914351      -0.00917777
I       20.38679230      16.07191103       7.40938339      -0.11772130      -0.00182041      -0.18640401      -1.15701069       0.36867510       0.44091395
I       22.36831688      12.32576472       0.56260230      -0.01668907      -0.05675536      -0.01274202      -2.50236270       0.04197160       0.36912366
I       16.15533932      13.39181099      12.87830080      -0.01842639      -0.02555045      -0.14417041       0.65943254       0.28875213      -0.18953855
I       19.99482771      16.38738537      11.91857334       0.02576338      -0.23437425       0.22909222      -0.93774827      -1.00591449      -4.43006022
I       18.39879371       9.86020277       0.79655312       0.32549597       0.05985581      -0.11774566      -1.33182974       3.41686374       1.80395101
I       25.87336868      13.08978378       9.61520477      -0.13797061       0.13322635       0.08336184      -0.04422937       0.31265630      -0.18501483
I       13.17304435      11.95318929       3.58859933      -0.00631566       0.28778558      -0.09428845      -2.27317291      -0.79364362       3.61376506
I       18.72315099      13.89141120       3.26854808       0.24171592      -0.15842727       0.01547416       3.11682620       1.02184522      -4.11992041
I       19.33420734      12.17810585       9.46884805       0.07273053      -0.10924827       0.26200776       0.42295215       0.84714784      -1.66924477
Cs      22.64049876      10.13104606      15.89506031      -0.08296389       0.02241576      -0.08408020      -0.43092396       0.51333046      -2.74695611
Cs      17.12013391      16.39943192      22.06882714      -0.12002423       0.14170486       0.21398352       2.30598036       1.47786237      -2.49484920
Cs      16.60239716       9.67881378      22.84015402      -0.22806925       0.01847031      -0.06803394      -0.31170500      -0.33036696      -1.40745298
Cs      22.29429566      15.95382264      16.44197139       0.23972992      -0.22401881      -0.01451089      -0.89651886       0.34787575       0.62709621
Pb      13.18988311      12.72674552      19.21745643      -0.03132272       0.22055209       0.07385498      -1.74663705      -1.26835621      -3.33864523
Pb      19.59562204      12.96405387      19.14666558       0.03008394       0.02948093       0.07732353       3.35323079       1.47103193      -0.54525837
Pb      12.72815754      13.06513599      13.04808637       0.31258212      -0.03349672      -0.11385693      -1.18031789       0.45078591       0.86239568
Pb      19.49950132      13.20386082      12.72510485      -0.14234340      -0.02249686      -0.04819677       1.24942993       2.12781954       2.85242791
I       16.14962518      13.31791876      20.01294875       0.32754856      -0.04932906      -0.06302250      -0.14721263       2.28147109      -1.02692114