520
Lattice="25.994483271260773 -0.2719163767549145 -0.2564786597882919 -0.2909345341981489 25.695512486623226 0.1520288744216491 -0.2397797291960219 0.1258362047876269 26.116959340473446" Properties=species:S:1:pos:R:3:forces:R:3:momenta:R:3 energy=-1953.706787109375 stress="0.0015327829169109464 -0.00010364154150011018 -0.00018423525034449997 -0.00010364154150011018 0.0012694287579506636 -1.6131923985085454e-05 -0.00018423525034449997 -1.6131923985085454e-05 0.0021161818876862526" pbc="T T T"
Cs       9.28560482       9.56411058       3.56297035       0.06411522       0.09363734      -0.08918724       1.17370879       1.68058227      -0.34311149
Cs       3.54038634      16.23653444       8.59041583      -0.14856517      -0.01713388       0.19083177       0.35395063       1.70445109      -0.27465652
Cs       3.38192112      10.04039871      10.11263217      -0.12191330       0.01518306      -0.01373699      -0.00466335       1.56880265      -0.35453931
N       10.29185501      15.78668184       3.24019341      -1.43570103       0.26263580      -0.14422578      -0.78716068       0.47452208      -0.05092257
C        9.26991408      14.65468562       3.34353337       1.58811713      -0.74041897       0.43153810      -0.27659758      -0.24564185      -0.37973174
H        9.70155328      13.74608661       2.85023846      -0.35643794       0.58294127       0.30091553      -0.06235960       0.28838280       0.07923435
H        8.32617430      14.94561526       2.92039995      -0.40757784       0.32852737      -0.64622467       0.01616701      -0.28645819       0.14736084
H        9.09384216      14.46131487       4.41550695       0.21244394      -0.01697675      -0.16528876      -0.12594958       0.13824094      -0.06470495
C        9.60048660      17.06975464       3.57822549       2.23797876       0.76929179       1.16730728       0.28756555       0.11197456       0.83418335
H       10.38311194      17.82887436       3.90479368      -0.80161790      -0.77348518      -0.30432915      -0.25227567       0.10843617      -0.09289884
H        8.93624725      16.85113890       4.38207556      -0.58260546      -0.01827480       0.80583102       0.02216136       0.21936400      -0.00361825
H        9.06914078      17.47793811       2.75960806      -0.66404915       0.17223990      -1.22695350      -0.13196946       0.05053261      -0.00665501
H       10.60670741      15.92501351       2.24551394       0.45706217      -0.58222871       0.25920468       0.14544978       0.05576798      -0.21478237
H       11.06388815      15.64303285       3.92210043      -0.12252783      -0.08690473      -0.49975811      -0.00257761      -0.01950979      -0.00749407
Pb      -0.04403851      13.30726798       6.49738162      -0.00172217      -0.22976766       0.16078972       2.06296154      -1.02031276      -3.13747470
Pb       6.49708964      12.75961584       6.64989121       0.01002391      -0.16957480      -0.14726032      -0.56957692       0.58597366       2.78014143
Pb       0.19513504      12.81462805       0.02996399      -0.13587728       0.26876940      -0.00514174       3.08581219      -0.35109907       1.72029858
Pb       6.60123949      13.04346520       0.10335054      -0.10616893      -0.03584950       0.61669442       1.39071218      -3.06223211      -1.12120636
I        3.22859711      13.07192867       6.52616952       0.14172655       0.04173269      -0.09647408      -1.43896429      -0.59290199      -0.95432782
I        9.89112739      11.98479161       6.84668531      -0.00279518       0.04326469      -0.09403815      -0.36211617       0.23225394      -0.79242834
I        6.01302669       9.52047089       7.00250113      -0.05965605       0.19954226      -0.06510475      -0.28671373      -1.68507323       3.93700522
I        7.20566482      16.12236326       7.04736924      -0.35603312      -0.15486195      -0.16420048      -1.97956886      -1.06630914      -1.21724847
I        9.29453074      11.40737831      -0.07184909       0.16097381       0.01189463       0.13215088      -0.71223272      -0.01312623       0.26427268
I        3.43115118      14.11721322      12.17416362      -0.10196523      -0.02238990       0.02370261       2.66363655       2.80737141       1.79379028
I        7.64320688      16.26295194      12.55421806       0.03664503       0.01073828       0.00804233      -1.58530706      -4.74442702      -1.17883728
I        5.36483440       9.28241018      -0.02459479       0.09273891       0.00383870       0.18716875      -0.57934242       3.74771249       0.64201050
I       12.89056200      12.91105580       9.86120240      -0.02585527      -0.05775207      -0.27038326       2.29344607       1.35178125       0.49381083
I       -0.00352970      12.53548820       3.43152879       0.09183936      -0.09316159      -0.33391455       3.14995836      -3.96450763      -1.43476402
I        6.30288045      11.94077533       3.53590545      -0.05595432      -0.01210537      -0.02085203       2.99181318       1.25977056       1.66063529
I        6.90818788      12.83789758       9.88304245      -0.01216043      -0.06563851      -0.38352097      -1.38809264      -0.20900462       2.45332764
Cs       8.88718286      10.15132608      16.31867907       0.21487725       0.01822497      -0.01056685       0.97291683      -0.62067436      -1.37855453
N        3.54509604      16.25380393      22.53667389       0.04790512       0.83286091       0.74403916      -0.12081057      -0.14994147       0.52996541
C        4.59189856      16.27044521      23.64414845      -0.49918711       1.70744749      -0.79580116       0.33413561      -0.28026897      -0.78128438
H        5.56003706      16.62609701      23.24807427      -0.33555415      -0.10849573      -0.06549411      -0.15226509       0.02071337       0.02430108
H        4.70167325      15.35282931      24.15111617      -0.11772986      -1.54593056       0.18110645      -0.08445693       0.15002362       0.00909940
H        4.22396700      16.98215615      24.39210951       0.00037019       0.22214787      -0.13148475      -0.18916910      -0.04093917       0.00349637
C        2.11278821      16.04837868      23.05349942      -0.16719735       0.12621968      -0.13094751       0.22735294       0.62954813      -0.32708299
H        2.04233928      15.12272102      23.71489918       0.18049770       0.75897196      -1.16146081      -0.04268451       0.22253405      -0.19654967
H        1.48379748      16.07796967      22.12144046       0.21270798      -0.48347877       0.94005112       0.08918626       0.13186685      -0.25785973
H        1.77630962      16.89327495      23.70117763       0.59314368      -0.19737798      -0.40807480       0.13034731       0.15271529       0.12371861
H        3.73661520      15.54330613      21.82019482       0.10587764      -0.33650061      -0.00406310      -0.00127519       0.32956236      -0.30442777
H        3.61954470      17.17814909      21.98934491      -0.31457628      -0.81649547       0.62011227      -0.26868922       0.09124345      -0.00378060
Cs       3.06853787       9.00314354      22.91038504      -0.00329457       0.14265677       0.01396064       4.54829630       3.00652128      -1.99823009
Cs       9.00418659      15.79420164      16.44802387       0.04639773       0.03769952      -0.04439209      -0.74228826      -0.03669535      -0.12995480
Pb      -0.60045475      13.06560100      19.61886135       0.07159380      -0.00802358       0.05869627       3.21620687      -0.76488743      -1.15690627
Pb       6.04806151      13.35316125      19.50752795      -0.19390980      -0.21995691      -0.16567187       2.14482791      -1.59677850       0.96845318
Pb       0.07668823      13.00319037      12.96542488       0.14185271      -0.33228984       0.07169287      -1.52456556       0.61061679      -0.12742904
Pb       6.32174814      13.36289353      12.74714464      -0.05274557      -0.00195207       0.50284929      -0.77513129      -4.18488396       0.11583560
I        2.61503718      13.46262715      19.61637291       0.15118361       0.11347488       0.04922284       0.51970013      -1.04264553      -2.71254753
I        9.06006797      12.78529149      19.07084542      -0.05353182      -0.05304376       0.05227303       3.66205794       0.58496742       0.80159300
I        5.54595115      10.02405995      19.90677175      -0.02502305       0.11960910       0.05761988      -0.80598134      -0.78572517       1.86154133
I        6.39046729      16.49740979      19.63767509       0.04408275      -0.42703241       0.03282497       2.00277390       0.00354324       4.21013698
I        9.81590829      12.30725559      13.41267082      -0.20983194       0.04809752      -0.22478901      -0.94254554      -0.47599794      -2.20425888
I        3.01305849      13.13446285      26.02106702      -0.06092917      -0.01103768       0.13096733      -2.30338039      -0.20585213       4.02820379
I        7.12083033      16.26752353      26.38560844      -0.05911426       0.05564552      -0.07877065      -1.89501774      -3.21183180      -2.90985783
I        5.60111086      10.32946791      13.28342840      -0.06989439      -0.32137410      -0.13847745      -2.07478059      -2.90855708      -2.64172778
I       11.70280797      13.16870026      22.49517099      -0.09635513      -0.00248470       0.52574585      -1.37716280      -2.00049006      -1.69242484
I        0.40678597      13.37637521      16.33992443      -0.05999735      -0.09025457      -0.06911020      -0.75016766       2.19466684      -2.95404414
I        5.82316027      13.21687234      16.15548020      -0.02444619       0.08686558       0.35890830       2.11101069      -0.63074383       0.81003901
I        6.40559422      13.07812669      23.36292939       0.02814484      -0.17159662      -0.88538983       0.45285011       0.14286771       0.03331834
N       15.39938007      15.14284453       2.70015846       2.10984670       1.12566264      -0.37673124      -0.12120924       0.22737564       0.53768963
C       14.08945442      15.69685798       3.02553192       0.72974494       0.89865780       0.59857820      -0.29821231      -0.54551281      -0.49832179
H       14.21909142      16.43371819       3.84708759      -0.22370623      -0.28025048      -0.31970045      -0.06500801      -0.21992959       0.08177555
H       13.50948042      14.86782200       3.29978863      -1.31360288      -1.11224505       0.73569951      -0.26075912      -0.05652155       0.02594670
H       13.66409343      16.13469083       2.13898102      -0.18327523       0.43132494      -0.51791158      -0.05935561      -0.28757554       0.07683007
C       16.30568928      16.21842203       2.09710551      -1.75350496       0.89079379      -0.79068315       0.47395016      -0.11599583      -0.81860943
H       17.30635294      15.92490498       1.87100696       0.84768954      -0.79830397       0.20749318      -0.29482131      -0.20987588      -0.01646494
H       16.33296391      17.18880104       2.67092484      -0.27935409      -1.05399293      -0.00406501      -0.13479356       0.15419989       0.13764641
H       15.83245731      16.45063943       1.09862740       0.32208437      -0.03529693       0.73462302       0.14093079      -0.07752690       0.24283096
H       15.35076541      14.34357928       2.04665125      -0.35321675      -0.29250215      -0.85226222      -0.05955087       0.24546955       0.09919985
H       15.85363081      14.68743886       3.49530637       0.17980608       0.17689172       0.80256120       0.12841628       0.08620793      -0.10099147
N        9.29602608      22.44797852      10.31750601       0.61176294      -0.42376211      -0.75455971      -0.86258580      -0.12504090      -0.46929738
C        8.14853166      22.11646462       9.53359748      -2.18824904      -2.18795825      -1.10313944      -0.13531850       1.48480633       0.20325529
H        8.04871389      22.72789111       8.66852224       0.57314627       0.80356943      -1.00168670       0.00322295      -0.10878840       0.20431387
H        7.14324405      22.20813878       9.95598658       0.24188818       0.25883930       1.07755881       0.16894283      -0.03959752      -0.22053690
H        8.14280126      21.05739153       9.19511905       0.54807165       0.35582545       0.13025208       0.25110482       0.29488906       0.09354800
C       10.51834245      22.43901893       9.48323381       1.57326025      -0.27358295       1.60367686       0.03789292       0.11837312      -0.23515840
H       10.40821916      23.06675659       8.64277489      -0.46457964       0.57459290      -1.20205311       0.17273902       0.04460936      -0.12066130
H       10.87656422      21.43426932       9.25112168      -0.53027328      -0.28433219      -0.23592409      -0.00591341      -0.21870335      -0.02826276
H       11.33907035      22.87311019      10.08395668      -0.16839139       0.00815806      -0.02580729      -0.11485869       0.11445386      -0.18540294
H        9.44093508      21.76869205      11.10708387      -0.27710072       0.22752119       0.38136808       0.21771243      -0.03418389      -0.33116675
H        9.12933369      23.39633385      10.60472300       0.16130982       0.93660702       1.16470079       0.10278672       0.16702581       0.17189519
Cs       9.83777905      15.51678112       9.30837328       0.22625106      -0.03692111       0.33855730      -0.88490433       1.99049727       0.19607095
Cs      15.56431972      22.61027858       3.06824892       0.22712126      -0.12800602       0.00532307      -0.72160811       3.73423328      -2.80905718
Pb       6.17602153      19.15298978       6.47012018       0.01637902       0.21437852       0.04017541      -2.33496778      -1.53079122      -1.19938408
Pb      12.83824481      19.23050427       6.48406613       0.04763639       0.10362993       0.08178593      -0.17338911       0.50672826      -2.71437898
Pb       5.98978100      19.63032959       0.00435584       0.07338454      -0.00360066       0.02537644       4.17233970       2.87817565      -0.65197299
Pb      12.78244395      18.74592428      -0.11877925      -0.20504734       0.16751189       0.03738129      -1.01184333      -0.29211158       0.85129659
I        9.71294373      19.19204776       6.64657882      -0.23178951       0.22201302       0.06688499       1.13966975       0.70818766      -2.90975134
I       15.80129996      18.33420400       6.63483291       0.47976956       0.08044268      -0.14464316      -4.47518557       1.51179252       1.71467823
I       12.73261839      15.95638950       7.08623494      -0.06261117      -0.12437079      -0.24568739       0.68709129       0.10290550      -1.81916896
I       13.68817262      22.39442940       6.48536617      -0.11767604       0.00236817       0.18758629       1.99866023       3.23702831      -0.16148975
I       15.78322168      19.30867766      -0.09736704       0.38775605      -0.07345119      -0.05727384       0.47833464      -0.23932061       1.09105883
I        9.27861989      20.21737705      12.96828160       0.08511524       0.00299759      -0.01634946      -0.55981467      -0.62560243      -1.15691295
I       13.50762959      22.60132562      13.05652985      -0.23319241       0.01296990       0.05906463      -3.95441854       0.04677419      -0.43365614
I       11.68671942      15.81647605      -0.08181722       0.08375292      -0.15649820      -0.09704865       1.87295646      -1.41586761       0.79846953
I       17.76081975      18.58162686      10.41897037       0.27064723       0.15677514       0.15746914       3.93738976      -3.43609877       4.35251803
I        6.50949315      19.86671678       3.14645614      -0.09945176      -0.16876141      -0.01664419      -3.94499226       0.04215766       0.10443282
I       12.78816326      20.02156140       3.11384230       0.01834122      -0.21270523       0.10070913      -1.02086731      -1.44931723       1.81255070
I       13.03506268      18.99382311      10.01765154      -0.02688410       0.10448405      -0.08016452      -0.06913228       0.05394307      -0.61472918
N       15.60771312      16.64884339      16.24063252      -0.92052088       0.26744714      -0.02314945      -0.54622274       0.12028207       0.26242583
C       14.65651174      15.91283790      17.15655407       0.97784460      -0.02725506       0.85944753      -1.06750357      -0.67086215      -0.55768260
H       14.15742408      15.01772979      16.75896748       0.30514848       0.28517607      -0.62755609      -0.08859071       0.02148200       0.16368433
H       13.94289997      16.64567569      17.44707336      -1.03265837       0.59397194       0.42650993       0.07817174       0.20325006       0.05174683
H       15.19663491      15.60546969      18.09111881      -0.08962959       0.16896652      -0.73234851      -0.09418578      -0.17532483       0.25927062
C       16.19824185      15.75037990      15.24321062       1.15267385      -1.89959885       1.62450915       0.99456158      -0.50657526      -0.68157875
H       16.80213386      15.04032774      15.85969852      -0.49627613      -0.05693209      -0.44553444      -0.03961614       0.22352834      -0.17474371
H       16.94367308      16.20750238      14.64932038       0.51949274       1.07411193      -0.96174495       0.13264438       0.29811756       0.00261070
H       15.46415729      15.17684076      14.64031200      -0.02182834       0.54654466       0.35306156      -0.08947718       0.01102140       0.03561197
H       16.22578861      17.28190862      16.84320056       0.26318524      -0.84965344      -0.37550620      -0.21093558       0.06141916       0.02250306
H       15.14228405      17.39390890      15.69685707      -0.57540809       0.06771070      -0.06001789      -0.21454569      -0.01295398      -0.02837780
N        9.55168922      22.97118403      23.48715581       0.89886287      -0.38088991      -0.64345167      -0.09737285       0.23491277      -0.03058882
C        8.26684933      22.86972954      22.77654914      -0.61181911       1.05088618       0.14409649      -0.21967128       0.25414280       0.42423225
H        8.26967106      21.95859117      22.17768793       0.14028327      -0.04042005      -0.31556254       0.31954237      -0.08529165       0.03170590
H        8.28717247      23.81263433      22.14131447      -0.69649364      -1.10964651       0.45426775       0.17627928       0.05834860      -0.15440387
H        7.37344118      22.79690380      23.47545315       1.01250029       0.38951658      -0.54837805       0.31117511       0.04017943       0.12159827
C       10.67987607      23.27307307      22.56349305       1.00401246      -0.80719609      -0.47590699      -0.11730150       1.02096173      -0.04192208
H       10.80762529      22.39961321      21.87691064      -0.17144465       0.39448967       0.32377323       0.36089075       0.07298511       0.18893077
H       11.64378851      23.41189921      23.09996221      -0.54858896      -0.17196670       0.11750980       0.26515353      -0.30200029      -0.17150890
H       10.54428209      24.17330596      21.93979093      -0.58140729      -0.02541864       0.29228633       0.06683723      -0.04542135       0.14675435
H        9.76961132      22.15060160      24.07304259      -0.03072698      -0.70503261      -0.11212756      -0.28534471       0.11902969       0.06836524
H        9.54661005      23.70290973      24.19130475      -0.43565070       1.30753257       0.79775476      -0.05036033       0.08588628       0.10356307
Cs       8.88882303      15.94067564      22.96445300       0.16801569       0.09947410      -0.06131270      -0.20591883       1.04400761      -1.36487142
Cs      15.15258400      22.44013938      16.45242877       0.14098398      -0.00151762       0.12761539       0.85005987      -1.30816400      -2.49176576
Pb       6.40776370      19.59438580      19.78329749      -0.06696228       0.12531296      -0.08488603       0.77923606      -1.83093073      -3.33677198
Pb      12.77408757      19.06378118      19.74148890      -0.12517697       0.02872744      -0.13230441       2.43321957       1.80600117      -1.59316986
Pb       6.20654662      19.05869141      12.98349515      -0.05678069       0.21394581      -0.11456682      -3.23351073      -3.73197147      -1.47965689
Pb      12.45941855      19.04289108      13.36163135      -0.16534048       0.10711209      -0.10809452       1.02769959      -3.88228101       1.01234163
I        9.46824826      19.90950508      19.92028475       0.06590444      -0.04106981      -0.05772916      -0.75847840      -0.89486759       1.88346447
I       16.04578877      18.95906008      18.95256031      -0.32001317       0.16123875      -0.02604362      -1.74376445       1.09632330      -3.41462104
I       11.40411968      16.09284969      19.68042197       0.14553871       0.15012706      -0.02775270      -1.32997065       2.89150040       0.50452007
I       13.31589372      22.46721015      19.96092051      -0.01719818      -0.02577017      -0.14415202       1.57292360       0.87512033      -0.00372189
I       15.45613744      19.55286946      13.85955324       0.09822967      -0.24341996       0.17994681       2.66694108      -3.36432502       0.71589818
I        9.67269789      20.05146396      25.81137217      -0.29286760       0.13216936       0.06405036       1.66205867      -1.82798060      -3.06594258
I       13.42148962      22.69282953      25.48382643      -0.02534627       0.01630434       0.01630992       0.73226078       1.56938048      -1.57698260
I       12.21267252      16.08788683      12.81843926      -0.00618720      -0.17536676       0.06548653       1.06963986       2.80761561      -1.64763545
I       19.31700965      20.21098590      22.98825309       0.26685754      -0.14278028      -0.15591999      -0.99476866       0.44678920      -1.96191089
I        6.51997604      18.83475433      16.08070507       0.01194822      -0.03447040       0.18020162       0.93219283      -1.74743137       0.78556129
I       11.02905641      19.08847215      16.27789081       0.36509370      -0.00836647       0.01275018      -1.24672739      -3.16063374      -0.13484023
I       12.65053359      19.21217556      22.78685222       0.05354302      -0.08974441      -0.02183166       0.60140304       1.58733214       1.16623565
Cs       9.60523158      21.84785841       3.31200178       0.06822960       0.15446260       0.02065264      -0.52971664       1.35302743      -0.60868645
Cs       3.01059255       3.24504269       9.51010947       0.05378907      -0.03991424       0.00079985       0.86902647      -0.04873553      -2.99727573
Cs       3.26256801      23.00462541       9.33095567      -0.04480356      -0.14182298       0.09670303       0.36465102       0.46672214       0.81395503
Cs       9.68217034       3.48378088       2.69979486       0.18045378      -0.11210510       0.06791063      -1.49044083       2.78349740      -0.67032771
Pb      -0.13194354       0.20811390       6.21045514       0.23212960      -0.28716063      -0.26923420       2.74052231       0.01703029       0.39267283
Pb       6.48018292       0.10848130       6.00679953      -0.06589249      -0.01828644       0.05809444       3.76132844      -1.03525373      -0.54610254
Pb       0.08899806       0.08377071       0.09497728      -0.25551977       0.18841339      -0.00553715      -1.74521747       0.78436623      -2.91688180
Pb       6.19380821       0.34354413      -0.27240491       0.39286764      -0.01322781       0.28685509       2.62147177       0.45652811      -0.81702631
I        3.41691956      -0.03933545       6.40194775      -0.00518911       0.09663752       0.03275836       1.74972535       3.19734222       0.05947345
I        9.65193026      24.76886550       6.22906837      -0.46144027      -0.01424380      -0.13251514      -0.74753105      -1.52839097       3.23618909
I        5.90828485      22.39050416       6.14497345       0.09746368       0.10915383       0.16895447      -2.41174601      -0.73439237       0.98421621
I        6.60409476       3.23602401       6.64203782       0.18189189      -0.15015838       0.03848010      -0.79240543       0.66684061       0.92902633
I        9.71789024      25.12104562      -0.10901611      -0.17791120       0.16202073       0.29285551       0.07720795       1.29651446      -0.16552876
I        2.91426619       0.66813095      12.65811444      -0.01349804       0.02323124      -0.07488733      -3.65107348      -1.38695197       2.15985025
I        6.51402870       3.37896659      12.72674414       0.20481919       0.09165184       0.10100863       1.34223138      -0.22920746      -0.56973785
I        5.80024717      22.88307466       0.43805489      -0.03958386      -0.21282175      -0.15282946       0.19349583      -0.68839076       2.86215280
I       12.82117558      -0.12115107       9.86018299       0.00671652       0.06467993      -0.34803438      -1.63604977      -0.58339901      -0.95663445
I        0.89864925      25.13161304       3.10386976      -0.27910212       0.16577152      -0.04414333       0.18286603       2.02658203       0.91783427
I        5.73770279       0.78388096       2.98280429       0.17686610      -0.01240287       0.12054004      -3.16035036      -0.20442395       1.79532371
I        5.76857330      25.96261441       9.73480640       0.07300369       0.00971062       0.03187964      -1.13742137      -0.10744389       1.29955489
Cs       8.66864175      22.07624775      16.38787107      -0.05203763       0.09356633      -0.01753111       2.07683087       1.31501886      -3.35848649
Cs       3.14105686       3.55373849      22.68893610       0.03590134       0.07896766       0.23261061      -0.66102220       0.56558755       1.37199354
Cs       3.17415116      22.96685959      23.36956999       0.03041692      -0.02153307      -0.18599318       4.22340230      -0.37096086      -2.98628119
Cs       9.10611195       2.24208005      15.97177581       0.19328340      -0.01951355      -0.07835919       1.12545365      -0.36141672       2.31941362
Pb      -0.24760802       0.46910088      19.66760594      -0.10548158      -0.15261326       0.14867299       1.92373352       0.35726103      -4.84594079
Pb       6.41603525       0.35768055      19.54366022      -0.13881906      -0.04770965       0.09340415      -1.54730461      -2.84795240       1.05955279
Pb      -0.26485238       0.17486468      12.64018209      -0.07949987      -0.15644359       0.13144743      -2.70693474      -1.69453468       1.64999356
Pb       6.37648453       0.27044335      12.78725705      -0.14788491      -0.30376231      -0.14994023       1.26437515       1.60662780      -2.42406794
I        3.13711066       0.93621829      20.46317394       0.02473668      -0.41562273      -0.41067962       2.11270044       0.50643635      -2.33519071
I        9.34127176      25.13017442      18.83654908      -0.21826161       0.00096272       0.17637786       0.88792042       0.54464506      -2.21270373
I        5.86372431      22.65244909      20.12919863      -0.25089045       0.49316449      -0.16835921       3.72189142      -4.52878000      -3.21337311
I        6.95462739       3.56552266      20.05298914      -0.11906486      -0.13126891      -0.26232831       1.85791374       1.09479414       2.41987670
I        9.15374736      25.63994841      12.56895774      -0.02163552      -0.03416648       0.11705398      -1.67971771      -1.69362045       1.07913971
I        2.98036779       0.72528958      25.60151654      -0.16729374       0.05897868      -0.16514274      -0.49577361       4.21217600      -3.08783201
I        7.42307503       3.47708826      25.70812377      -0.08490725      -0.02106023       0.01985693      -2.91824787      -0.43852494      -0.70528792
I        5.51811101      22.34230722      12.76653161      -0.03149770       0.17156331       0.07910143      -1.07977918       0.05739639       0.99589016
I       12.97737445       1.43622673      22.64681514       0.24707614      -0.45164038      -0.13767885      -1.13270592       0.74094012       0.73585576
I       -1.32274565      26.04889662      15.99533828       0.18885557       0.02270353      -0.02068566      -1.31078442      -0.37561908      -2.21049898
I        6.24281880      -0.24879696      16.23329726       0.03197004       0.13338362       0.03521299       2.56026623      -0.20883921      -2.74059482
I        6.29191087      26.57870988      23.01173417      -0.07046898      -0.23849456      -0.30771381       0.91306100      -0.89140892      -0.20155207
Cs      16.46905090       3.43601316       3.15505319       0.01964570       0.11241727       0.01184756      -1.05658264      -2.75478585       2.52055191
Cs       8.88649888       9.69036773       9.86684911       0.13891701      -0.12883845       0.02613164       2.68550667       0.52448451       0.40815012
Cs       9.70829935       3.25338837       9.26004009      -0.05074165      -0.12918258       0.13370275      -2.29130105       0.78411656       0.85577080
Cs      16.05273636       9.31375664       3.36649256       0.11815012       0.09741698       0.01226543       0.22780251      -1.06039688      -1.25894007
Pb       6.32445601       6.29013555       6.28286879       0.04492794       0.10299589       0.22177421       1.34994128       0.06885444       1.39846864
Pb      12.57433772       6.19783786       6.46358474       0.31483441       0.02126378       0.01113954       0.80992839       0.39631265      -0.79036443
Pb       6.34981146       6.15180691       0.25713682       0.07701609       0.36308776      -0.75308645      -3.65641494       0.83798607      -5.37257513
Pb      12.87609583       6.40716639       0.19879076      -0.03978185      -0.12095088      -0.30975555       2.39857098      -0.47428711       1.79742713
I        9.72276303       7.01578318       6.19454450      -0.12113483      -0.04480733       0.09041860      -1.01254656      -0.66850394       1.89524355