360
Lattice="25.27786410010849 0.2910207839425783 -0.026615037873754913 0.25841243974936623 25.694280567476746 -0.0960823078968696 -0.138163944976106 -0.013517245933741602 25.548081254362522" Properties=species:S:1:pos:R:3:forces:R:3:momenta:R:3 energy=-1112.7698974609375 stress="0.0005677788285538553 0.00024532314273528755 -0.0002000822278205305 0.00024532314273528755 0.0012282016687095165 9.0414920123294e-05 -0.0002000822278205305 9.0414920123294e-05 0.0007746664341539143" pbc="T T T"
N       10.02286904       9.48669352       2.63442726      -1.26581513      -0.11711433       0.60876662      -0.17944813      -0.45730290      -0.08723343
C        8.49018643       9.50449707       2.50384761       0.70669992       1.05107314       0.04620668       1.04647691       0.26105395       0.28197996
H        8.26014646       8.90759062       1.59936870      -0.23067201      -0.12515625       0.74366485       0.24059982      -0.04255709       0.14575735
H        8.18216673      10.56050891       2.29443531       0.34306401      -0.55217730       0.10939452      -0.24294399       0.03141990       0.07921803
H        8.03422903       9.24025458       3.50047236       0.43781396      -0.27562694      -1.03940136       0.31466111      -0.12936569       0.04897783
C       10.51965929      10.32034380       3.80587187       0.05381429       0.00929505      -0.86762809       0.72827507      -1.31852792      -0.41907051
H       10.07534150       9.95557832       4.76332902       0.23363954       0.08404299      -0.66024041      -0.26924940      -0.22923224      -0.05452694
H       10.24075281      11.39156268       3.60155079       0.06678949      -0.83237463       0.18325154      -0.03626288       0.13802761       0.00635800
H       11.61662119      10.21680894       3.75796465      -0.21376919       0.13002010       0.43095172       0.40411083       0.00335915       0.02471320
H       10.49725356       9.74595646       1.76355884      -0.20638902       0.80756207      -0.30102355       0.16410892      -0.23155212       0.13173500
H       10.34282327       8.47896409       2.66736093      -0.16625665       0.03081554       0.77858485      -0.07633639      -0.11429084      -0.09861809
Cs       3.56843742      15.59986703       9.37920533      -0.03400151       0.16779489       0.03754213      -4.32396159       0.40025496      -2.75628606
Cs       3.04460109      10.39095167       9.56150903      -0.04549214       0.04820666       0.13716847       0.36801429       1.11071452      -4.44372189
Cs       9.17680809      15.36388708       3.22067059       0.12357496      -0.00873859       0.00927177       0.74516211      -2.09274771      -2.71494946
Pb      -0.15758451      12.86462411       6.02576991       0.01250592       0.02943286       0.35165318      -1.27845321      -2.87036898      -1.05880119
Pb       6.36302681      12.80011236       6.24111367       0.01373163       0.16523504      -0.22211955      -5.85399098       2.94562767       0.18774980
Pb      -0.10708153      13.61103766      -0.40390810       0.05944565      -0.05279619       0.13293358      -4.17534431      -1.09295716      -4.57977213
Pb       6.33605464      13.34516612      -0.44354287      -0.07971248      -0.36232879       0.30851451       0.85019963       4.70141572      -1.82190917
I        3.13496328      13.36841509       6.03191497      -0.14033905       0.12751197       0.07968419       4.82539759       0.00039950       0.29725359
I        9.51206628      12.62847628       6.74015225       0.11239135       0.02188200      -0.16043801       1.09132979       2.51750528      -1.04211298
I        5.75823739       9.79056301       6.19764250      -0.09926280      -0.17414207      -0.14963825       1.48155802       1.67394641      -4.75888154
I        6.91798651      16.17559544       6.04721525      -0.15687652       0.16302474       0.10326102       0.60081284       0.96627505      -0.83180553
I        9.76138644      12.71530470       0.05686041      -0.28866375      -0.04127186      -0.02438948       2.20584500       1.17107667       0.96120439
I        3.26371421      13.29347782      12.99879231      -0.07438057       0.11245625      -0.34796010      -0.59924576       0.95894286      -0.63740116
I        6.86138396      15.99596976      12.43404603       0.22799152      -0.01199720      -0.10023601       2.22262695       3.13095019      -1.71707752
I        5.31692933       9.73224117       0.37520720      -0.07649938       0.03114307      -0.17621304       0.31445258      -1.91750518       2.91624092
I       11.77792422      13.76051410       9.72783719       0.23147647      -0.09316017      -0.05630462       3.49948833      -0.59562229       0.81784407
I       -0.39985921      12.51710754       3.05743518       0.22839120      -0.09644965      -0.11117494      -4.14645461      -2.91854522      -1.88436205
I        5.62404214      13.45908481       2.76055953       0.14972785      -0.12259179      -0.03136442      -0.30075676      -1.21551429       1.48607287
I        6.23536181      12.75007722       9.28826310      -0.08024666      -0.00023120       0.21426248       1.93406262      -1.33067563      -1.25080653
Cs       9.80103195       9.38987233      15.61951453       0.00779776       0.04664483       0.07575326       0.06611708      -1.59353493      -1.43258651
Cs       3.42015173      16.39941680      22.50006108      -0.10094869      -0.07343481      -0.10504062       0.89216146      -0.86748629       2.36902368
Cs       3.25981739      10.11377282      21.85413799       0.03853849      -0.04109768       0.10990659       0.35697180       0.99428300       2.87989042
Cs      10.00268341      15.29638819      16.08488038      -0.20866303      -0.09982927       0.10353964       0.06612178      -0.66670604       0.60924121
Pb       0.20321498      12.60058341      18.84482385      -0.13063783       0.13520019       0.11868082      -2.65886935       2.58532652       1.09052152
Pb       6.30335210      12.82039261      18.92500839       0.33337360      -0.01210274      -0.04332246      -0.80036152      -3.18348278      -0.26986926
Pb       0.16014741      12.79497547      13.14251316      -0.09697422      -0.05122951      -0.14310458       0.55651585      -0.73787056       1.25282710
Pb       6.31596754      13.00768206      12.83252061       0.22275601      -0.26394000      -0.34481532      -1.09122189       3.42000537       1.49715636
I        3.47593741      13.65502790      19.54680485      -0.45672109       0.09794638       0.03915362       2.59813001      -2.59547796       1.43723384
I        9.66828444      11.93647037      18.48586714      -0.09939750       0.18119219       0.01043326      -2.15693303      -0.07675096       1.74062691
I        5.62827160       9.81210461      18.42987910      -0.11952730      -0.28388279      -0.05048651      -0.06155700      -1.58395162      -1.66648421
I        7.08311620      16.07398451      18.55929797       0.07988966       0.14595977       0.17777698      -0.98267505      -2.43405843      -2.67307729
I        9.52816998      12.17806380      13.07378368       0.14893179      -0.01050144      -0.02901839       2.09888338       0.13736715       0.31831459
I        2.91162413      13.47517847      24.98553241       0.16558261       0.03876715      -0.02897928       0.23111830       2.04145068       1.21775251
I        6.87969362      16.23088542      25.71167562       0.10016500       0.16651891      -0.13142830       0.98942763      -0.45297332       0.96022445
I        5.98201080       9.65083383      13.23624771      -0.07571735       0.28018171       0.01218332      -0.73772580      -1.95308291      -2.54447822
I       12.27353740      13.38090323      22.28344779       0.00936715       0.09858357       0.09952822       3.02839466      -1.31696291      -2.25319101
I        1.42283230      12.01258732      15.97695418      -0.19673872       0.11720321       0.18196351       2.78391790       0.49562919       3.50485051
I        6.30383577      13.35461357      15.75629721       0.00737813       0.05704190       0.23732225       1.72517088      -0.67886927      -1.44665092
I        6.52664627      12.22693847      22.00224152       0.09583464       0.04301687       0.30179215       0.49591927       3.82794875       0.21475324
Cs      15.22396776      15.85623892       3.78847199      -0.02431608       0.11461675      -0.03198410       2.69409837      -1.17420486       0.83951101
Cs      10.13031361      22.61795086       8.88348103      -0.07835000      -0.01625492       0.17075487       1.63834505      -0.83649570       1.94681341
Cs       9.22390691      16.72848746       9.15847379       0.11237905      -0.05080999       0.04467496       1.59289326      -1.58878865      -1.06599321
Cs      15.83236389      22.72444222       2.80873475      -0.02678516      -0.17669811       0.08682725      -1.56034745       3.72680238      -0.62494235
Pb       6.30061046      19.43468609       6.36532253       0.06006808       0.04890270      -0.26348025       3.91134875      -0.45329081       1.84086036
Pb      12.83592361      19.24052977       6.69041228      -0.00970475      -0.16102832      -0.15744278       1.08441985       4.92944973      -2.05523184
Pb       6.21123707      19.41796118      -0.28560339      -0.04667829       0.01349271       0.45745497       2.34660546       1.67146080       1.01224306
Pb      13.21782267      19.28370475      -0.13447319      -0.09536574      -0.02708466       0.02898677       0.80393807       0.86804423       0.42991674
I        9.51048619      19.72620073       6.47576900       0.04954890       0.06279984       0.02094087       3.61267203      -0.86283850      -0.03282145
I       16.11293250      18.38394681       6.70910302      -0.38328015      -0.07853984      -0.21502943      -3.84923874       1.60904979       2.64952665
I       12.01972939      16.22979713       6.04097650       0.04121622      -0.25634478      -0.03286179      -0.09069518      -1.82306911      -0.47654248
I       12.95477227      22.34201619       6.13118120       0.15748927       0.15357542       0.11460370       1.91504603       1.85182635      -0.05932833
I       16.06042410      18.09696274       0.63964229      -0.02816417       0.07747220       0.11002139       0.20464297       0.72355630       1.13095651
I        9.78775311      19.58862314      11.86116724      -0.07014763       0.11754112       0.06681670       0.59514116      -0.27108055      -1.34450972
I       13.20416202      22.54180106      13.09692282       0.09227649       0.05545410      -0.22506462      -3.24025268       1.29853571      -0.93925868
I       12.01249157      16.23111081       0.76864584       0.10202936      -0.00410631      -0.11459837      -3.05425916      -0.54042550       1.97864415
I       18.37099057      19.49153480       9.99071534       0.14769404       0.12826436       0.00026546       0.09442476       4.86909524       0.31872539
I        6.81531998      20.31626453       2.93386225      -0.04051633      -0.13986681      -0.02707526      -1.73061484      -1.09931624       0.98891347
I       12.81834846      19.17492013       3.20697375       0.11803074       0.11668741      -0.04906612      -0.39001396       0.01389689      -2.24554465
I       12.91095769      18.81258461       9.73962395       0.12437168       0.10589854       0.03103548       2.14608054      -3.41690697       0.29232473
Cs      16.40718082      16.11380812      15.80372049      -0.24718813       0.04606370       0.04685609       3.72425625       3.96767832      -1.39436809
Cs       9.76208663      23.05132930      22.29538202      -0.00880502      -0.01495806       0.02207119       0.78155941       1.21241694      -1.27755455
Cs       9.84115698      16.64932495      22.76208732      -0.02181941      -0.04117081      -0.00373045      -0.76302923      -3.26413083       1.94760043
Cs      15.39103273      21.73208484      16.40444829       0.02315531       0.30825971      -0.08954537       0.55872725       2.70625156       1.25663354
Pb       6.81608085      19.27087790      19.12583156      -0.29767263      -0.07142014      -0.16417500      -0.55570613       1.37693939      -2.65679195
Pb      12.70508988      19.27689309      19.34116785       0.25116367       0.30892927       0.04133351       0.07694424       1.67540318       0.27847564
Pb       6.76600467      19.11042829      12.66457569      -0.03473545       0.25226486      -0.05647889       2.49376312       1.36509535       0.28966981
Pb      12.87753656      19.41825967      13.48797106      -0.61222432      -0.23433041      -0.51876787      -3.60313021      -2.36434440      -4.52554887
I        9.68986015      20.12097907      19.70067124       0.12129050      -0.04452355       0.11649625      -2.48556449       0.55275617       0.11280177
I       15.91960916      18.86570951      18.43269814      -0.07854625      -0.15303406       0.21452888       2.24711103      -0.09286506       0.91981208
I       12.16905436      16.29821021      19.22703891      -0.22980761      -0.17064294      -0.23545943      -0.93061110      -2.34926709       2.04251763
I       13.33714223      22.46006861      19.95233409       0.08341272      -0.06941399      -0.13616798      -2.48309130      -0.92673722       0.34331564
I       15.84083432      19.15871256      13.36763878       0.39207326      -0.02209790       0.05367896      -1.53441364      -1.90191912       3.53957462
I       10.09966081      20.02416450      24.56855702      -0.05172167      -0.04941107       0.16031780      -0.71903733       0.45648909      -0.70040008
I       13.52582657      22.88948423      24.83839963      -0.01283145      -0.24860854       0.24615283      -2.01837662       2.31162159      -1.03255503
I       12.11642403      16.13849926      13.40308333       0.27177714       0.01085774      -0.11279183      -0.04473467      -0.74044313       2.62049381
I       18.31341535      20.07845263      22.45770326      -0.08926563       0.12533795      -0.28829559       0.37864727       0.33471965      -0.33354790
I        7.06315736      19.37383276      15.71734140       0.04851462       0.03970812       0.32338512      -0.29260353      -0.93175660       0.38458989
I       11.74862358      20.22939027      16.10929405      -0.01757103      -0.06572901       0.42855437      -1.55516534      -0.96528145      -0.59284666
I       13.47231471      18.17011969      22.44242544      -0.01031715       0.16805254       0.02858047      -0.13252675      -0.76683929      -2.14234604
Cs      10.56374234      22.08340145       3.04642403      -0.23619249       0.07033813      -0.11975855       1.41497004      -3.43299759       0.82080385
Cs       3.45081369       3.34910887       9.94910234      -0.09715079       0.04114566      -0.13579690      -1.98583245      -1.20086690      -3.14196355
Cs       3.36257882      22.48538664       9.20881202       0.04670656       0.04217369       0.23864453      -0.25612411      -1.36537308      -1.98863007
Cs       8.96447588       3.02431837       3.78341356       0.09692170      -0.00881452      -0.01458597       0.08829259      -1.07251096       2.28708585
Pb      -0.12866567       0.56129100       6.62377195       0.17243678      -0.48237394       0.09972746      -4.24201489       1.80624682       1.31872258
Pb       6.50902852      -0.12366576       6.57995042      -0.25067679       0.03953767      -0.12096707       0.56858317       1.80945263      -1.16900180
Pb      -0.27518844      -0.24146553       0.40015999       0.04801502       0.11425904      -0.38058449      -1.79571098      -0.80978094       0.94915590
Pb       6.23010442       0.31843985       0.25251672       0.12733902      -0.13544682      -0.19293629      -0.92601875      -1.36099575      -5.86131650
I        2.93840734       0.94422629       7.03228914       0.06458808      -0.07429759      -0.09276990       1.44045531       0.32101864       0.04156468
I        9.75570873      25.03441792       5.49624486      -0.37504847      -0.00825212       0.08225412      -0.66880090       2.71626490       0.39611229
I        5.47131955      22.64767679       6.14766739       0.14886659       0.12364830      -0.12526867      -1.49737078       0.26920386      -0.51979661
I        6.84493738       3.54296763       7.33100950      -0.15813765      -0.19787145      -0.21855613      -0.52685488      -2.14887855       0.26504435
I        9.76180509      25.47353870       0.75811476      -0.06260886      -0.05005232       0.03879658       1.91976146      -1.70060132       0.47945199
I        2.91278157       0.30424880      12.39302941       0.22702876       0.07842253      -0.04395823       1.47552158      -0.64566934      -0.94255360
I        6.58335424       3.14543986      11.84377776       0.09038744      -0.02549219       0.17214593      -1.47957665      -0.49904455      -1.00825546
I        6.65582939      22.42767284      -0.62121783      -0.14384361       0.14238594       0.02366084      -4.23397162      -1.64953353       1.73828462
I       12.41712133       0.02586838       9.49438849      -0.04049468      -0.07415684      -0.02083616       2.77719633       1.54445259       0.70553769
I        0.02488957      24.98251913       3.30247116       0.15843195      -0.03372096       0.06723961       0.67427775      -1.45680150      -0.92942577
I        5.86840409       0.55858867       3.29855794      -0.02962074      -0.08270683       0.21167800      -1.95932340      -1.27049718       4.40378272
I        6.83058071      24.79835085       9.41243046       0.08385196       0.01780164       0.07115934      -1.21725091       4.21226592      -0.83251407
Cs       8.97805363      22.93102366      15.72766396      -0.03089475      -0.03006529      -0.04665842       0.74722559       2.38767596      -0.32341850
Cs       3.31902412       3.14669595      22.34559541      -0.01866452       0.07964556      -0.00269403       1.88349140      -1.01798238      -1.54276290
Cs       3.71940918      22.96967903      22.00842462      -0.12455119      -0.05401694       0.18750637       1.98379215      -2.04906280      -3.48234535
Cs      10.14144049       2.99820733      15.95510917      -0.28492532       0.02143885       0.05105063       3.69200611      -0.42807214      -0.03577874
Pb      -0.18954658      -0.18227148      19.50562154       0.02249539       0.41262771       0.00506879      -2.57270823       0.35327338       0.64594522
Pb       6.39828135       0.21356044      19.21635820       0.07573251      -0.12607205       0.02268357       1.40395918       0.54485473      -0.59539489
Pb      -0.29911521      -0.01300225      12.70818972       0.15749318       0.00414902      -0.00170580       0.88750205       3.38862266       0.42995133
Pb       6.35281326       0.03074121      12.65248785      -0.00491291       0.03887050      -0.05081490      -0.89695835       1.04449947       0.14816787
I        3.21997343       0.28840559      19.78376205      -0.10018979       0.15458175      -0.12724432       0.91487872      -1.63149115      -0.93457928
I        9.89033987      25.19398105      18.94672799      -0.30595357      -0.04506817      -0.12995250       0.70824226       2.44884452      -1.45547941
I        6.34324354      22.59876771      19.43880158       0.07662447      -0.13860499      -0.17139075       0.84886365       1.87206056      -0.26423058
I        6.93188851       3.31678654      18.74613813       0.11776554       0.10789826       0.03343536      -1.81604693      -0.52584378      -0.30868786
I        9.89887293      25.73135106      12.87622392      -0.45952585      -0.09360619       0.01158526      -1.26035110      -1.24508277       0.46134214
I        2.89031337      -0.05573025      25.39458228       0.05619586       0.08871766       0.02874668      -1.80632400      -5.32950518       1.03551270
I        6.33435464       3.45180162      25.57735052       0.11078754      -0.31541164      -0.18457701      -0.84839567      -3.46260261      -0.36731581
I        6.21711989      22.38074665      12.61362622       0.02628656       0.13502142       0.08089415      -0.97292087      -0.46690527      -0.22469595
I       12.47825244       0.00551623      22.26091796       0.05643736       0.08574339       0.08946030       0.50580405       1.83301816      -0.21465070
I        0.43560839      25.21188593      15.65642436       0.04497517       0.14015469       0.28206661       1.95113280       2.10766380      -3.08117229
I        6.37041708       0.74738923      15.79965437       0.27296485      -0.20153414      -0.00898507      -0.19823593      -1.27550914      -3.44847840
I        6.65581838      25.54459261      22.37498390      -0.05722560       0.14086672      -0.09785764       3.13250823      -0.53809358       4.46409784
Cs      16.22239006       3.50541631       3.58602667      -0.08368857      -0.09827543      -0.06943627       1.97576789       2.03766050       1.73233323
Cs       9.84140665       9.98932601       9.45429049      -0.04743651       0.02806508       0.03347956       2.51534162      -1.43654433       0.69175975
Cs       9.55142992       4.00723642       9.73778650       0.15137847      -0.04200716      -0.02210318       2.56576822      -0.07621084      -0.08730665
Cs      16.17236509       9.01743323       2.82203273      -0.09225252       0.09912416       0.03331033       0.76323166       0.31074830       2.04495367
Pb       5.89109357       6.48534788       6.29866768       0.22065307      -0.03501808      -0.02328165       0.72594595      -1.40074551       1.06676014
Pb      12.32305882       6.54965651       6.47550576       0.16331577      -0.10595610      -0.07355341      -2.34049837       1.73639221      -1.97942423
Pb       6.03320101       6.65088256      -0.28877798       0.05866885       0.23042582      -0.00883035       1.54790853      -1.88908060      -5.34750427
Pb      12.54677272       6.94019179      -0.02438387      -0.01712784      -0.17250701      -0.07327981      -2.29578651      -0.57483875      -2.73912680
I        9.06033887       6.96020751       7.01733369       0.26762467       0.04171194       0.03336393      -0.92341710       2.24747594      -1.91632992
I       15.54734186       6.16751956       6.18535396       0.03454034      -0.03209678      -0.11620675      -0.49593106       2.10085776      -0.62438802
I       12.17683346       3.23040232       6.05066189      -0.10648789       0.05794769      -0.02390619       0.33995647      -2.53378244      -0.19426691
I       13.23797906       9.75107196       7.02337369      -0.06679151      -0.06768809      -0.03440664      -0.19668223       1.58474023       0.83880080
I       15.64272221       6.08059721       0.18862016       0.17416790      -0.06664895       0.15768931       1.93432481      -1.87078601       0.80181111
I        9.54156351       7.19669168      12.08910331       0.10697787       0.01856480      -0.13080524      -2.65087662       1.58050563      -1.72294601
I       13.34751945       9.80817860      11.25674371      -0.14345294      -0.02777994       0.29901179       1.67650202      -0.87880440       1.05258299
I       12.21697982       3.66224466       0.31853851       0.02424564      -0.14210149       0.03645944       0.72091581      -0.17153767       2.64027455
I       18.47675143       6.42085974       9.76201196       0.03118458      -0.15670874      -0.13187393       2.59140063       1.14201555      -0.45418488
I        6.41230167       5.69449026       3.05143073       0.02317098       0.14954707       0.33589956       2.07171340       1.52539313      -0.63478817
I       12.08023822       6.90415490       3.24022599       0.33832445      -0.25821124       0.08071777      -0.83031814       0.68439223      -2.48681393
I       13.27203499       5.57633397       9.49195765      -0.09404711       0.04286213       0.05339161       0.67630763       0.57024644      -1.61876656
Cs      15.31107584       3.37210172      16.09895573      -0.00308366      -0.09340956       0.11389111      -0.84094736       2.25406329       2.40683990
Cs      10.06648505      10.39830330      22.18637533      -0.03092790      -0.06999417       0.10864999      -1.62015899      -2.70885759      -2.08408577
N        9.38900877       3.45316549      23.39544723      -3.75007619      -0.98037140      -0.09040707       0.62464293       0.00688212      -0.00146342
C        8.77289886       4.19874728      22.19407339       2.39529589      -2.56532929      -0.86613372      -0.20389428       0.23350502      -0.77796694
H        7.91741282       3.67075692      21.83024703      -0.82728818      -0.62131638       0.08104489      -0.05856895      -0.29297668       0.02230359
H        9.49813545       4.19746513      21.32000444      -0.39626727       0.09000851       1.12972921      -0.12572574      -0.01745733      -0.08045505
H        8.52354762       5.14149909      22.50798118      -0.56262132       2.58825717       0.76567285       0.15761591      -0.02319602      -0.23686027
C        9.62469353       2.00025652      23.17473056      -1.39063863       0.00595069       0.43504196      -0.33032771       0.14035479      -1.12616965
H        8.64530421       1.44131018      23.03615878       0.87084777       0.70777056       0.28018229       0.03078923      -0.19396457       0.16606558
H       10.17977768       1.64675822      24.04165319       0.07169690      -0.26990223       0.03058535      -0.12079998       0.23823825       0.07206777
H       10.17784806       1.94327429      22.28319269       1.03387316      -0.33593589      -1.29461678       0.16759440       0.41462904      -0.17442807
H        8.66388623       3.43854962      24.21714817       0.97196211       0.66663346      -1.07974577       0.06599113       0.12015275      -0.21138846
H       10.21765741       3.88690947      23.72311850       1.50431628       0.95933740       0.63044101      -0.00883616      -0.08421795      -0.27871793
Cs      15.73924038       8.91388107      15.88797821      -0.03027424       0.10649910      -0.02759468      -3.64166138      -3.81677941       1.00293452
Pb       6.49139239       6.42586111      18.45567875      -0.11767360       0.04847241       0.17175109       1.32549408      -1.94776721      -1.38507782
Pb      12.42095252       6.71598995      19.19689845       0.08061894      -0.01941972       0.12216293      -0.37486409      -1.29482732      -1.36298828
Pb       6.48526953       6.93103567      12.27592618      -0.14438286      -0.47513830       0.05685336      -4.26375889       4.09673177       0.02174160
Pb      12.64297019       6.31250733      12.47179371       0.29839223       0.24993444      -0.01175626       3.03261436      -3.43383633      -0.37757585
I        9.43475608       7.62963242      19.77059110      -0.25720238      -0.13270402      -0.16861364       3.59919425      -0.44830881       0.95776999
I       15.51246174       6.11736989      18.83415060       0.30326969       0.03777722      -0.01519698       1.05044620      -0.19749251      -1.00837239
I       12.24351392       3.28962505      19.33980326      -0.04127096       0.02527445      -0.12473579       1.35091518       0.34980603       1.65317537
I       13.22087111       9.91088596      19.39010975      -0.01573369      -0.14857201      -0.04669714      -0.32369761      -1.04606302      -1.86177847
I       15.74641361       5.73473468      13.36999543       0.08985202       0.19423895      -0.13397683      -0.25004711      -1.73687490       0.76123117
I        9.28964113       7.11337475      25.07857606      -0.09218704       0.10247926      -0.15184146       1.69311508       0.58307164      -0.68977602
I       13.45243868       9.80733291      24.66008947      -0.16115499       0.14872724       0.22774889       1.73117306       1.10144007       1.22457148
I       12.29879705       3.34299088      12.83868083      -0.12630630      -0.06628553      -0.00607457       1.35177201       0.99666937      -0.21582436
I       18.58228598       6.92478881      22.20487799      -0.17021778       0.02447813       0.47851698       0.17602393      -0.96194486       2.49444578
I        7.35681650       6.44858733      15.45523732      -0.05254364      -0.14924914       0.26295563      -0.12072879       4.33912447      -0.39473123
I       12.55104749       6.50212356      15.96599621      -0.19720691       0.06982839      -0.15586621      -0.22403769       1.26960029      -0.33263512
I       13.09597115       6.39544638      22.29002687      -0.09714338       0.03743292       0.09391765       3.98069765       1.39036458       1.86356809
Cs      21.96767581       9.61789291       2.96134539      -0.04997192       0.03162444      -0.01774817       2.98710796      -0.33234759       0.16297684
Cs      16.09682867      16.51024242       9.92307033      -0.16240939      -0.21312899       0.11901246       0.07721451      -1.20723395      -1.40337688
Cs      16.44359204       9.54245212       9.28421971      -0.05944937       0.04041941       0.07975671       1.48755764      -2.88377008       0.87555417
Cs      21.82188363      15.22915822       3.39873825      -0.02917755       0.17146921       0.03653004      -1.35417078       1.22771617      -0.75149621
Pb      12.88575727      12.79429862       6.84711455      -0.17158273       0.22819642       0.05582528      -1.18727536      -0.01498577      -3.67937059
Pb      18.84560800      12.95742897       6.45919145       0.19183428       0.02439861       0.32408119       1.42000329      -2.91184581      -3.47765206
Pb      12.98252748      13.26232364       0.17184210      -0.31099685      -0.14348095       0.05654250       1.16202217       3.97789758      -3.03954661
Pb      19.03323206      13.28973877       0.05249577       0.04893805      -0.08051632       0.00365861       2.00849808      -1.28744831       0.18770397
I       16.01132573      13.48823994       7.53163143      -0.43846350       0.05396706       0.00787753      -1.26904179       0.59447387      -0.40981697