360
Lattice="25.44884150484198 0.05920257472577084 0.03237534330177644 0.11299173306259726 25.23884262012125 0.07561265870138717 0.06755975160703855 0.01948174812947069 25.4756411360135" Properties=species:S:1:pos:R:3:forces:R:3:momenta:R:3 energy=-1114.9530029296875 stress="0.000582752050831914 0.00017229499644599858 6.274785118876025e-05 0.00017229499644599858 0.0004730863438453525 -1.3845034118276088e-05 6.274785118876025e-05 -1.3845034118276088e-05 0.000729239487554878" pbc="T T T"
Cs       9.10145445       9.40783535       3.17288113       0.12617240       0.14726938       0.00585198      -0.83904258       2.63944234       0.43295201
Cs       3.37535804      16.56483769       9.73434496       0.13224605      -0.15199852      -0.03818485       1.75147179       1.33874994      -4.03712850
Cs       3.93734016      10.03825765       9.81160267       0.01799605      -0.03213049       0.00456556       2.81067488      -0.86541045      -4.63303706
Cs       9.59681375      15.55965921       3.38578511       0.05901145       0.20005262       0.07650279      -0.64972019       0.94101479      -1.27685837
Pb       0.41948303      13.18306747       6.40661647      -0.24636664      -0.45466822       0.14666376      -0.90088149      -0.05598767      -0.78716393
Pb       6.42852223      13.23815630       6.31183487       0.13477092      -0.25534796       0.62758544       1.73932038      -1.37373497       0.47126022
Pb       0.45608340      12.95327078       0.07749398      -0.14706296      -0.11118446      -0.27475924      -1.51956396       1.90456013      -1.64895582
Pb       6.55433885      12.97443175      -0.12210780       0.15907832       0.28896668       0.00888410       3.03049950       3.41134408      -2.36617844
I        3.36683238      12.85881970       7.32007337       0.06792947       0.26828590      -0.00792382       2.48265966      -1.99728077       1.15477688
I        9.55905276      11.82343834       6.10617211       0.08057368       0.29911245      -0.22277253      -1.02667362       1.58209731      -2.27375655
I        5.73511045       9.82610432       6.10686741       0.22802093      -0.08765846       0.05272695       4.08481387       1.18741558      -1.23248251
I        7.25472348      16.35123758       6.88570271       0.01160988      -0.32262249       0.10190937       0.60351680      -0.57785656       2.65844699
I        9.84669322      12.57632274       0.85086126       0.01508238      -0.30993725      -0.03379332      -1.43536437      -0.99917281       0.07750314
I        3.58077459      13.48005351      12.23403141      -0.16011197      -0.04819842       0.00591776      -1.58497034       0.08811859      -0.04180394
I        6.86332013      16.32927964      11.86688414       0.06589872       0.03044724       0.14625210       3.44620724       0.42493020       1.22021316
I        6.15155002      10.00937112       0.02283487      -0.06991493      -0.54164211       0.21865541      -1.49930122      -0.67545275      -2.01925296
I       12.97440115      13.16350141       9.62404552      -0.25199579       0.09364162      -0.21818553      -3.35265358      -3.07277425      -0.07627707
I        1.26097772      12.52194428       2.89393138       0.04378322       0.10372183       0.57965948       1.30609432       1.25932083       1.32484532
I        6.45671274      13.84951655       3.47825770      -0.32907758      -0.10065964      -0.66147996       0.86292782       1.21178029       1.25133700
I        7.08998901      12.89030275       9.63537571       0.03024976      -0.15293292      -0.08811825      -1.44355745       0.33261355      -3.12267315
N        9.74504107       9.18811727      15.12155088       0.57561071      -1.18220344       0.95390087       0.23924697       1.16559739      -0.55881113
C       11.15936179       9.36080865      15.61002771       0.47738810       1.13452037      -0.33416336       0.47803263       0.06583961      -1.53836886
H       11.82063302       9.64007552      14.72665498      -0.61152368      -0.39266205       0.97446113      -0.12772827      -0.17714961       0.20326024
H       11.38491789       8.39263682      16.04909143       0.45741349      -0.16593636       0.06854042      -0.20436420       0.11627149       0.04429114
H       11.23998220      10.15918099      16.40777045      -0.39751190      -0.57255721      -0.77171385       0.03812107       0.55057977      -0.00369651
C        8.87228399       8.71081255      16.26258685      -1.93887943       1.11839822      -0.02615839      -0.01770081      -0.35244785      -0.05111513
H        7.74035944       8.51979335      15.96370352       2.16517922       0.23420372       0.19363478       0.24221047       0.22626360      -0.07373493
H        8.84842020       9.56765037      17.00024019       0.11254187      -0.75842275      -0.48196055       0.31118624       0.13507727      -0.00539875
H        9.33594039       7.84340886      16.73734438       0.05761039      -0.15555951      -0.14261772       0.05256382       0.16210430      -0.11528909
H        9.80527377       8.49717021      14.34147009      -0.43099765       0.25580653       0.16863640       0.05676260      -0.05581770      -0.24732770
H        9.39777651      10.06165684      14.74660587      -0.41482344       0.74478501      -0.57359357       0.16355295       0.29071363      -0.01118081
Cs       3.51410621      16.15815216      21.93782793      -0.04705944       0.05856607       0.03151684      -0.59358603       2.94390026      -2.28312973
Cs       3.55161809      10.14415919      22.37472466      -0.00643292      -0.00368482       0.07052909       1.85298895       2.81574385      -2.80658571
Cs       9.18343674      15.83507855      15.27428353       0.01403950       0.00809041       0.14112435       2.43968904       0.27439884       1.87877705
Pb      -0.02945456      12.56776870      18.96092395       0.12688702       0.14904421      -0.14698958       1.02884987      -4.32946561       2.43011387
Pb       6.53972815      12.67286930      19.06238933       0.27883127      -0.03676809      -0.08450196       2.43750193      -0.80922843      -2.98425202
Pb      -0.00370671      12.81148122      12.80954970       0.07271192      -0.01429315      -0.21585559       3.49743475       2.87432095      -1.03161625
Pb       6.72527792      13.04795770      12.87985655      -0.07046229      -0.07902346      -0.30102432       0.90457059      -0.72446964       6.21703789
I        3.61840914      13.32076345      19.44857003      -0.46911214      -0.05912550      -0.02153957      -0.45483981       2.56947842       2.10465844
I        9.80739650      12.17344238      18.90859255      -0.01221114       0.20137933       0.01591643      -2.05050822      -2.50001172       0.38731462
I        5.78572530       9.56223617      19.02119886      -0.05831462       0.02592151      -0.14299409      -1.26841596       1.66381564       0.86791184
I        6.42157622      15.96031394      19.53310880       0.23888123      -0.06933273       0.01912346      -0.20847229      -0.77951176      -2.62742437
I        9.87729480      11.96033366      12.69480023      -0.03855485       0.17240900       0.07194834       1.41434802      -2.07341895      -0.22653683
I        3.64246784      13.74586690      24.86566306      -0.03720567       0.01514893      -0.01336866      -2.10860651       0.53604220       3.42560952
I        7.79210061      15.89315001      24.68850940      -0.17994835       0.18631430       0.03596400      -2.27015240      -0.73016132       0.78434737
I        6.49818426       9.81007137      13.54220753      -0.29904658       0.09864509      -0.13716998       1.39354527      -2.40628655      -3.69567488
I       12.63092884      13.70176932      22.47479071      -0.12338931       0.10694940       0.34843647       1.19130221      -2.41908678      -0.72526914
I        0.74909623      12.32596275      15.75734679       0.04650220      -0.04724433       0.01933467       0.29610976       1.06239683      -1.07378708
I        6.02505749      13.71908781      15.80076814       0.13437191      -0.02877286       0.22794641       1.78445765      -0.51938150      -1.48323188
I        7.04771980      12.52474563      22.19907559       0.01654517       0.00422781       0.10091727       1.16992279       2.36534764       3.32192367
Cs      16.07412271      15.26801738       3.25902337      -0.05039298       0.07754123      -0.00138940       0.71526551       1.19014960      -0.26954915
Cs      10.58742578      22.49008804       9.84354559      -0.12219608       0.08590128      -0.12346062      -1.52650698      -0.54087331      -1.54525077
Cs       9.94518774      16.01853030       9.63983958      -0.02047529      -0.10638827      -0.01176722      -2.74450285      -1.78420029       0.12409529
Cs      15.92410495      21.66108062       3.09778527       0.06062672      -0.16920632      -0.02683031      -1.08983232      -0.11194214      -0.49850082
Pb       6.75060350      19.44255829       6.58655087       0.20237685      -0.13423029      -0.49682716       0.39384306       2.78176840       1.98001545
Pb      12.79291385      18.86633638       6.34733837       0.07753385       0.24212330      -0.33657089       0.68169240      -1.02641127      -0.07276747
Pb       6.22366256      18.69440493      -0.02719743       0.41775549       0.13083150       0.07558989      -2.27978871      -4.05255781       0.22924278
Pb      12.70305123      18.96764005      -0.29119485       0.04940479      -0.08785784       0.17053987      -1.11641500      -2.91517107       3.21514748
I        9.75478015      20.02384996       7.19921563       0.02696719      -0.10780811      -0.15840134       0.30895255      -0.82385943       1.70145915
I       16.05268105      18.64406190       5.37000076      -0.09585478      -0.11431198       0.10303124       1.64171745       0.11006334       0.72733482
I       12.93812455      15.51468932       5.50061763      -0.14572487       0.22732451       0.10249060       1.92142360      -0.58370359       0.79845227
I       13.76578869      22.02161224       6.55134062      -0.14901955      -0.06378005       0.08054714      -3.03278539      -2.40984154      -2.09725666
I       16.00425686      18.50120034       0.26777168      -0.07650473      -0.02227512       0.20739596       1.44837786      -3.11580693      -1.42110498
I        9.70028452      19.65369034      12.34818477       0.02571741       0.00346190      -0.06078017      -3.17720342       2.37412499      -0.22346470
I       13.57148289      21.82956396      12.00131699       0.16299947       0.15052729       0.10435983      -1.84405491      -0.47020440      -5.78119930
I       12.19073830      15.67624467       0.83848230       0.20010129       0.54702275      -0.05952863      -0.32505840       0.15318599       0.70854569
I       18.26163105      19.97409852       9.66435363       0.14485381      -0.30486609      -0.11169711      -0.18589860      -0.56850813      -0.27491680
I        6.47550506      18.46509839       3.40503587      -0.04711381      -0.02383502      -0.27609399      -0.91122766      -0.51826119       2.48859016
I       12.37053307      19.37653273       3.22571926       0.01431746       0.00623075      -0.13797253       0.28305872      -0.30035771      -1.39372966
I       12.96089225      18.43573033       9.35900775       0.05012866      -0.12172442       0.37585101       2.77962279       3.34252704       1.79087248
Cs      15.77699308      15.69491408      16.15296857      -0.06129765      -0.11735194      -0.14243892       2.80543593      -4.09008331      -2.62368635
Cs      10.21209128      22.87169464      22.49988224      -0.14757820      -0.19295408      -0.10192146      -2.28710661      -1.51882731      -0.28667229
Cs       9.75982969      16.13776270      21.54621789       0.03500862      -0.01832233       0.00727092       0.85425011      -2.70898435      -1.08941728
Cs      15.74480335      21.83596447      15.50658324      -0.16101790      -0.03285731       0.13791525       0.09655191      -0.47998315      -1.64253445
Pb       6.65750685      18.97303603      19.16335775      -0.09836009       0.26235264      -0.13946298      -0.03986232      -0.93834933       3.01831164
Pb      13.05002819      19.28676935      18.87835408      -0.15542168      -0.30913621       0.04358351       0.56220403      -3.99453508       0.48848499
Pb       6.61692188      19.76017323      12.50361351      -0.22351817      -0.38848492       0.09487015       0.66187684      -1.95689278       2.21747485
Pb      12.74687690      18.75220067      12.72662882       0.24504838       0.07977560       0.08739577       1.14731495       0.80143261       2.06669080
I        9.77168036      19.39527098      19.58029134       0.01672657       0.05567541       0.02291155      -3.23048096      -1.91358181       2.96865727
I       16.04875037      18.66870517      17.90680753      -0.01979346       0.31507073       0.18093134      -3.93200013      -0.59091456       3.31439696
I       12.38198837      15.93058108      18.40024603      -0.10719216       0.15904279      -0.05693571      -1.46501380      -2.67348832       2.69143074
I       13.38989673      22.26126875      19.37870441       0.07470423       0.09166668       0.06832986      -0.91686838      -1.98116925       2.16666711
I       15.95117920      18.01258087      13.23373874      -0.01202957       0.15636446      -0.10926948       1.34307868      -1.80027264       3.25574858
I        9.56656127      19.31482050      25.65131191       0.12750499       0.10974800      -0.20719964       1.31656205       2.64616701      -1.83715900
I       13.09909402      22.08089761      25.18681906      -0.01547786       0.10156281      -0.06388424       0.39735294      -0.45930101       2.73536758
I       12.26284659      15.62645165      13.32486277      -0.04067160       0.19395697      -0.05347778      -1.14424784      -2.47828775       0.05871471
I       18.56227701      19.52652336      22.65970572      -0.08094744       0.06639758      -0.66446129       1.48675425      -0.74790948       0.46708662
I        6.85308849      18.62261244      15.72550145       0.00737523       0.18923591       0.03003459      -0.49825122       1.60348201       1.98795036
I       12.17858552      19.74894495      15.79382055       0.11071220      -0.06127346       0.00220125       1.01063940       0.54369927       0.52581632
I       13.77227062      19.00505881      22.19226707      -0.13635800      -0.07777996      -0.08852407      -4.18011348      -1.90523196       1.55462084
Cs       9.66623319      21.98528514       2.78413655      -0.05570778      -0.08181479       0.23057778       2.36129967      -2.38380891      -0.69489205
Cs       3.05197840       3.44797420       9.70935643       0.12739334       0.06001756      -0.04534286      -0.66647737      -2.99285839       2.17022862
Cs       3.35553662      22.55605723       9.42299183       0.13981118       0.24221695       0.09617363      -2.96232440       2.00507894       1.37507248
Cs       9.18317807       2.87098416       3.22203565      -0.08682332       0.05712493      -0.01834307      -1.14006391      -5.90759532       0.34658415
Pb      -0.01402268       0.26495447       6.53937701       0.13775580       0.13765805      -0.15402465      -0.76360380       0.61723462      -2.72711358
Pb       6.66535330      -0.15907177       6.50390223      -0.07571242       0.26637447       0.01071190      -1.80448410      -2.28897090      -0.42134660
Pb       0.26808829      -0.10805033       0.01512612      -0.02183685       0.12772291       0.07217307       2.09343669       3.33158694      -3.30497641
Pb       6.24761719       0.09883701       0.33658318      -0.08660009       0.04920166      -0.09228260       2.88185223      -1.41708227      -0.60794381
I        3.11582590       0.66420228       7.10670383       0.01572312       0.01306585      -0.02880228      -0.43611153       2.29832348       0.83125767
I        9.82567359      24.58700749       6.17140403       0.01941799       0.00440006      -0.10042679      -0.91091941       0.80145218      -0.09738293
I        5.82718210      22.29179587       5.67177653       0.02976260       0.14021200      -0.05749288       2.37492959      -3.98514135      -2.48154954
I        6.75074168       3.36613353       7.06303679       0.02646231      -0.06036311      -0.08802746      -0.50614346       1.37858295      -0.22918377
I        9.70603220      24.86104865       0.61517243      -0.27208299       0.06919024      -0.03622538       0.96573760       2.10027046       0.50889039
I        3.01563649       0.78346046      12.45563102       0.30197794       0.02369739       0.06043138       1.53705261      -0.68229723       1.07036107
I        6.74541949       3.59842905      12.27950461      -0.26492202      -0.46523660       0.11087669       0.38774975      -2.77819984      -1.02877871
I        5.86739786      22.09446759       0.78787425       0.16262002       0.02621064      -0.15407398      -2.45967556      -0.59496974       0.93499642
I       12.67499797       0.52034921       9.37818470      -0.17710828       0.02835698       0.21443024      -0.99471484       1.16876310      -3.68466146
I        0.56933264      25.39342128       3.21160361       0.06650674      -0.05560843       0.18177260      -3.51048083       2.78038416       0.77899306
I        5.94438545       0.67026252       3.38177988       0.03489499       0.06674311       0.04905708       1.57361351      -1.67788464       1.65711214
I        6.87634349      24.36517716       9.48351171       0.01120691       0.02933152       0.29316594       0.04311072       0.16379544       1.73077695
Cs       9.27282372      22.19568150      16.03455528      -0.04677870      -0.11664382      -0.11161004      -0.51389936       2.41452589       0.89459540
Cs       3.38439517       3.88109134      22.03524684       0.11706902      -0.22632386       0.05457816       0.91389279      -1.07426008       1.87017526
Cs       4.07023682      22.94451104      22.61597289      -0.24336333      -0.21855733      -0.04528758       2.71136899       1.30689339      -0.74249419
Cs       9.90754789       2.91845307      16.28139023      -0.13725256      -0.18046754       0.07907262      -2.14533735       0.44861872      -0.34669549
Pb       0.06458244      -0.07556978      19.28205851       0.07026982      -0.01888889      -0.34333586       1.43440507       3.32717639      -1.77225620
Pb       6.38556976       0.05996042      19.27152007       0.05229119       0.07234214       0.52063612       0.39276675       2.50042558      -1.99039740
Pb      -0.02399846      -0.01512799      12.70013714       0.08958084       0.02955942       0.20466970      -3.15456809       2.77167135       1.64256651
Pb       6.35972641       0.52374077      13.32139035       0.12171344      -0.12835139      -0.21611472       0.01500389       2.87257833       1.32917000
I        3.31927727       0.92776570      19.10715034       0.05149246      -0.04290432       0.08230772      -3.20867508      -1.37168733       3.59395522
I        9.97557902      24.53191429      18.65186068      -0.05274195       0.20921396       0.28808681      -2.00365174      -3.31041068       0.55722629
I        6.20909092      22.22994743      18.99160219      -0.02442786       0.09283160      -0.05484567       0.13120105       2.33681767       1.82424067
I        7.46960884       3.48997341      19.85494294      -0.14172411      -0.03345976      -0.05109269       0.11244311      -0.15308404      -1.12534163
I        9.60636950      24.83685599      12.71090192      -0.08198248       0.15389963       0.17482248       1.18368798       0.40331789      -1.16118507
I        3.38605265       1.34495813      25.22947288      -0.10560618      -0.14576038       0.03735862       2.88923328       1.46572628      -1.23491266
I        6.93446297       3.31966137      25.26921108       0.08079408       0.21864351       0.06018219      -0.86778970       2.19099401       1.18765233
I        6.14422676      22.57433975      13.72376601      -0.00742008       0.10195887      -0.03289026       0.57796442      -0.61302816       0.18380183
I       12.33624982       0.61684926      22.36491467       0.05127104      -0.19868555      -0.00859067      -0.26035857       0.64400930       1.77225083
I        0.39043114      24.81663490      16.14650048       0.00122819       0.14819069      -0.21696770      -2.57456634      -3.01498519       0.69451672
I        6.57000332       0.71889561      16.45200332       0.00551189       0.17786803      -0.85092972       1.51629900      -0.18660953      -2.21219546
I        6.86450260      25.10705722      22.69584524       0.27138547       0.05683093      -0.08944634      -0.93187314      -0.86460457       3.05508136
N       16.08062320       3.90287671       3.02846424       0.32856381      -1.77772838      -0.76078705      -0.77466755       0.65545035       0.07361343
C       15.13150537       2.73100571       2.75213524      -0.31199771       2.42524586      -2.94221586       0.57125881      -0.34336441       0.62051962
H       14.88021677       2.86436354       1.64730875       0.20983484      -0.34126115       1.04250715       0.12372462      -0.22924815       0.07235866
H       14.17642084       2.78502899       3.24192359      -0.26715024       0.14465688       0.87967783      -0.20333268      -0.31123898      -0.17829761
H       15.65470741       1.82711369       2.83636818       0.85177163      -1.40701163       0.52555611       0.17089065       0.07079035      -0.11340860
C       17.33105507       3.40505905       3.66552288       0.17873132       0.25289067      -0.04672426      -0.48805221      -1.41897212       0.86915052
H       17.07792095       2.99445806       4.66281713       0.14874319      -0.12503004      -0.54125779      -0.18083263       0.14741897      -0.24308819
H       18.06405062       4.20113158       3.75687381      -0.04499358       0.44841491       0.23791586       0.14929341       0.21705892      -0.11525818
H       17.76870651       2.70895084       2.95570634      -0.00200943      -0.65492471       0.10214629       0.20261832       0.19559125       0.11198232
H       15.69220902       4.51397164       3.69722295      -1.10029598       1.39734608       1.12770996      -0.20042809      -0.23119799       0.06829754
H       16.26135167       4.44356793       2.14578359      -0.02012886      -0.14267748       0.37173236       0.15083830      -0.07646434       0.17908051
Cs       9.59562850       9.66676249       8.95066439      -0.07874765       0.03189644       0.41380304      -1.57482294       3.24731212       0.70703377
Cs       9.31643467       3.27282379      10.04106229       0.38582467      -0.06181323      -0.36025666      -1.22143351       1.34252446      -2.96835245
Cs      16.04073823       8.89023751       3.46359503      -0.24247898      -0.16519427      -0.24810313      -2.11156577      -2.06508858       0.78731591
Pb       6.18416498       6.50374621       6.34554166       0.22682613      -0.01377099       0.28805630      -2.51158199      -1.10687608       0.66689841
Pb      12.69426399       6.52014641       6.51278779       0.09345682      -0.19610107       0.06218823      -0.58162005       1.80788148       1.10809817
Pb       6.70918213       6.59387872      -0.01819269      -0.17926040      -0.06220395      -0.25457934      -0.16649535      -1.16323869      -3.85806330
Pb      12.86050251       6.78142590      -0.01667759      -0.04438006      -0.23966611      -0.05080210      -3.11688870      -2.32150502      -3.55490770
I        9.64221229       6.71736924       6.80538175      -0.30528648      -0.04255717      -0.06540967       1.78971881      -0.83503996      -0.24277914
I       15.86943940       5.93622868       6.49028561       0.33076402       0.04140294      -0.10002160       0.93098942       0.80856029      -0.36605678
I       12.07064757       3.12895622       5.46525582      -0.00967187       0.13103374       0.17621430       1.98857404      -0.32303902      -0.67923498
I       13.11535156       9.55878734       7.35504344       0.09280950      -0.29991757       0.05077006       3.68301570       0.73308219      -0.55772613
I       16.09253465       6.43435230       0.14090754       0.03289394      -0.07374404       0.19777060      -1.54041245       1.99991317      -3.03390452
I        9.53872328       6.90902133      11.75674222       0.17283186      -0.03684058       0.15481371       1.18545680       0.83373112       0.54375021
I       13.30514361       9.57458309      12.04202478       0.05112061      -0.36830790       0.00923116       1.81936799      -1.40637837      -1.28000762
I       11.87682952       3.51975137       0.50862105       0.02698802      -0.03076073       0.03055407      -3.28653572       0.53182948       0.81609483
I       18.94955851       7.12637711       9.51891663       0.04730219       0.00481719       0.27115452       1.14457567      -1.46703959      -0.52773954
I        7.14269832       6.32643385       3.10757691      -0.05474147      -0.07630443       0.05082535       0.98485151      -0.21555536       1.97106689
I       12.57989406       7.14996810       3.47659936      -0.09028175       0.08107817      -0.34353228      -1.23489511       1.78354969      -2.31619168
I       13.03962739       5.29957457       9.53144377      -0.05655856      -0.01086141       0.24918114       0.90578957       1.42203426       0.88806440
Cs      15.46496271       3.16755610      16.00329883       0.00489577       0.01571045      -0.00453096      -1.67672131       1.41613027       1.30384962
Cs      10.31637459      10.46932619      22.72719654      -0.00915164       0.03217295      -0.16263828      -1.86182957      -0.26668784       1.79843477
Cs       9.82934895       3.23911655      22.81242038      -0.07493941       0.19993931      -0.05128898      -1.58123425       0.64239263       1.48669664
Cs      15.05557131       8.42032348      16.15522283       0.18385921       0.23373391      -0.02192925      -1.26865628       1.42271765       0.66069472
Pb       6.42649279       6.43318449      18.84962018       0.07590373      -0.17034998       0.33139591       1.36518123      -0.09276251      -4.49963003
Pb      12.26416264       6.51569832      19.40987992       0.74218824      -0.08306343       0.00076418      -0.97907002       0.05402916      -0.86496023
Pb       6.69732061       6.47953741      13.22871177      -0.21673091       0.31229583      -0.40291460       0.74882358       0.21648509      -0.62722378
Pb      12.71983529       6.00555715      12.68856228      -0.09873893       0.09487215      -0.25627775      -3.34887190       2.41144375       3.54771598
I        9.69955527       7.39759513      20.21634002      -0.68445516       0.07839509       0.07447692       0.32483584      -2.46646261      -2.08393264
I       16.05658403       5.33953415      19.09248692      -0.09150580       0.24792682      -0.19557105       1.57416889       3.24583534       0.71912439
I       12.13379060       3.35621886      19.33175446      -0.09629274      -0.04556962      -0.01657258      -0.13420227      -0.37658026       0.08545636
I       13.14119484       9.86724540      19.70370228       0.21788622      -0.13750118       0.03854843      -2.59303380       1.00210455       0.24265758
I       15.91323209       6.03058023      12.79611212      -0.27932924      -0.18080371      -0.02284734       1.34270448      -2.61949556       1.01238825
I        9.70001060       7.24043725      24.39261785      -0.03998876      -0.14857356       0.32696568      -2.56574056       3.26982176      -1.03521325
I       13.54332272       9.79745655      24.88344397      -0.06874631      -0.12712610      -0.08214499       2.71419656       2.11990664      -0.28203318
I       12.33480341       2.96573813      13.41665522      -0.01377159       0.03942942      -0.24239111       0.25947265       0.54816226       1.01207531
I       18.78203571       6.80257921      22.19322944       0.04407131       0.11604529       0.21053071       2.76691976      -1.01448262      -1.25212443
I        7.02366034       5.30166294      15.94208241       0.03103705      -0.07132328       0.31782568      -0.76412913      -0.79316874      -0.72936706
I       12.29379245       5.85362556      16.06942881       0.11607948       0.03373347      -0.03406539      -0.29306554      -1.82235091       2.22182397
I       13.45273870       5.98674212      22.41999928      -0.08583468       0.07559825       0.03832090      -0.32597394      -3.89057122      -0.09245857
Cs      22.35528953       9.46896337       3.53711971       0.04843389       0.05089086      -0.05482584      -1.16567845      -1.29046321      -0.40088340
Cs      15.63098857      15.84842856       9.29786314       0.15920938      -0.01649036       0.05263354      -0.88716464       2.88741090      -1.06886467
Cs      16.24955207       9.54914054       9.61342509      -0.07718627       0.18736380       0.03116203       0.84956512      -1.25008077      -1.41466760
Cs      22.57631952      15.97454638       3.35470093       0.07446105      -0.11802143      -0.05555318      -1.85742574      -1.75183107      -0.28545176
Pb      12.88571448      12.47639625       6.42369155       0.10104087       0.15150310      -0.07167472       2.46958782      -1.80043372      -5.29948505
Pb      19.54613314      12.74586285       6.17246473      -0.11769587       0.07160641       0.17373898      -0.44321894      -3.74121686      -2.89415875
Pb      13.04103500      12.88898144       0.22051845       0.04881804      -0.18943307       0.04121259       0.58183863       0.59360456      -0.74504881
Pb      19.72758740      12.93726872       0.03347550       0.16131381       0.10519951      -0.05473286      -4.91002475       2.96041945      -0.86643645
I       16.12755467      12.81510962       6.70746291       0.00910412      -0.03017956      -0.04932251       1.17283314       0.43793748      -4.78318745