320
Lattice="25.21545342928641 0.17704809368391516 0.24917327135684553 0.05682144874688867 25.390115046365388 -0.15015377976912284 -0.05198098945253562 -0.0801624062814082 25.473908466348842" Properties=species:S:1:pos:R:3:forces:R:3:momenta:R:3 energy=-903.0752563476562 stress="8.447927393717691e-05 -0.00019913402502425015 2.447810766170733e-05 -0.00019913402502425015 0.0006987884407863021 -0.00010131709132110701 2.447810766170733e-05 -0.00010131709132110701 0.0007121998351067306" pbc="T T T"
Cs       9.33046421       9.78844545       2.95054163      -0.05915884      -0.16523495       0.10345209      -1.59010913      -1.27586898      -0.53738078
Cs       3.58984752      16.47204138       9.28962272       0.15533052      -0.13779994      -0.06829706      -0.06803538       4.58699313       0.94758337
Cs       3.53367819       9.95858740       9.49872532       0.09254877       0.06315162       0.04422946       1.55858761      -0.11786936       4.51714265
Cs       9.43050415      15.83886166       3.28571146      -0.03432843       0.07171102       0.04306574       3.15335317      -1.74049545       1.27100828
Pb       0.13427323      12.87148988       6.27468377      -0.06527751      -0.02362086       0.48370668       0.98435375       3.91751821       4.80011956
Pb       6.59598737      13.12715959       6.16264103      -0.13681951       0.04510544       0.28779123       0.07970391       1.85346572      -1.14090291
Pb       0.19733412      12.84071074       0.13617513      -0.31844145      -0.17783582      -0.31094922      -2.22917974      -3.23316021       0.25617738
Pb       6.40177257      13.14658979      -0.17511808       0.01349244      -0.01748497       0.25665041      -0.26376020       1.92714355      -4.84556559
I        3.19362379      13.80761303       6.56144128       0.02352317      -0.16116395      -0.06296848      -1.45620223      -3.19054551      -0.80270237
I        9.69017195      12.52997565       5.70997968      -0.12704381       0.00136895      -0.02040410      -0.78792789      -0.79809781       1.73862468
I        6.08898506      10.02340600       5.90054919      -0.11905814       0.07064730      -0.04237597       1.48132842      -1.82592148       1.27222045
I        6.93710565      16.54350180       7.04325499       0.14595540      -0.13180162      -0.10342143      -1.41790914      -0.83972148       1.26833172
I        9.50894269      12.49218028       0.49888546      -0.00718545       0.10765604      -0.02486253       3.87785755       4.38833484       2.17602789
I        3.28130148      13.48439826      11.78907631       0.03510335      -0.01355252       0.00600589       1.18788654       1.70249387      -1.36947784
I        7.12315949      15.78406104      12.30145944      -0.11420996      -0.12869444       0.13641929      -1.14166898       0.84891371      -1.36646976
I        5.73214623       9.98034992       0.61936330      -0.01919263       0.14588260      -0.02428581      -0.86482292      -1.72678335      -3.28379125
I       12.37733171      13.14816174       9.31091095       0.08048300      -0.02622146       0.14581101      -0.89038666       5.12341655       0.65505620
I        0.03356745      12.66316678       3.28050932       0.06194646      -0.22138100      -0.21074897       1.31611433      -0.44388202       0.37816473
I        6.30867443      13.63102818       3.20167094      -0.13136196       0.09920245      -0.25947332      -1.62555422      -3.31664936      -0.56762434
I        6.74046673      12.54658811       9.34884193       0.06288691      -0.12371844       0.19996831      -1.19180666       0.00381434       1.15816370
Cs       9.08073945       9.52089381      16.09658504       0.01689595      -0.01462820       0.00106711       1.49590143      -0.91814143      -2.78844178
Cs       3.81485333      16.58851908      22.33102763      -0.08564731      -0.09764409       0.09684574       0.27981170       0.57418218       0.20836812
Cs       3.23511622       9.90567177      21.70851721      -0.10277557      -0.00864127       0.12292335      -1.33899736       1.96962822      -1.13675708
Cs       8.91373454      15.27895812      16.16636969      -0.01848425       0.09034043      -0.07163866      -3.80858135       0.63150040      -0.60009256
Pb       0.03355560      13.09670178      18.99541798      -0.14221783      -0.19840745       0.09729256       3.50281756       2.34644084       5.27348624
Pb       6.01518975      12.80212706      18.96099199       0.08130508       0.30566771       0.06813634       1.47385087       1.19562141      -0.23536504
Pb       0.27085710      13.17035584      12.58918036      -0.25918445       0.09305277       0.10107827      -0.37183699      -1.14038198       1.10234047
Pb       6.18963574      12.77201175      12.75342074       0.03751086      -0.17308964      -0.10554105      -2.17858973      -2.71123288      -0.86853801
I        3.00610134      13.43960215      19.86386596       0.17223418       0.05354526       0.01038162      -0.30027027       1.15845279       0.15028559
I        9.46012225      12.61734960      18.92441153      -0.16148044      -0.11795491      -0.12875168       1.75924283      -1.92785713       2.55695796
I        5.73125412       9.74341743      18.66828708       0.06632275       0.02332714      -0.05552803      -0.75253519      -2.35928375       0.12535737
I        6.15367949      16.35436989      19.13074988       0.20179328      -0.40657727       0.01002223       2.13909652      -1.73164233       0.72466197
I        9.61234375      12.33165044      13.56401112      -0.08715152      -0.00306096      -0.04657386       2.62932523       2.68119521      -1.56133538
I        3.01877892      13.55918073      25.61508664       0.52707553       0.02527993      -0.17196437      -2.76312849      -4.09804541       1.60631967
I        7.13218603      16.30109305      25.22311421      -0.09995950      -0.27870419       0.05259438      -1.85841401      -0.77070164      -3.85761487
I        5.70562975       9.46455672      12.72211399       0.01312672       0.08028808       0.21362449      -1.53019936       2.75224440       1.80422035
I       11.36649540      13.74906377      22.46778757       0.24537792      -0.33083571       0.08426869      -1.30448128      -0.33912593      -0.71300866
I        0.58980449      12.68026604      15.84826491       0.07680662      -0.00519503      -0.08589321       0.54651568       2.27450096      -0.53019313
I        5.39425095      13.53056804      15.64037373       0.09524742      -0.17147868       0.28075106      -4.71748088      -3.77218893       1.47939423
I        6.61081179      12.62472941      22.31695968      -0.04623331      -0.08585824      -0.33353363       0.21950609       1.01027489       0.67316440
Cs      15.66343319      15.64625296       3.33942122       0.10309187       0.01120214       0.00570941      -0.76417671      -0.91977585       0.67298529
Cs      10.27989265      22.61856199       9.34678869       0.02787117      -0.02069158       0.09021645      -4.47391504       1.52042902      -0.36430931
Cs       9.45904797      15.13337523       9.81220790       0.16295505       0.22207381      -0.22822940      -1.67915984       1.49449299      -2.89660693
Cs      15.58068458      22.73325365       3.00670239       0.12940874      -0.03803248       0.03976680       1.77465720       1.15322566       0.07534822
Pb       6.65542413      19.65010472       6.37336295      -0.01919558      -0.00619533       0.06617061       5.09040149      -2.23861916      -1.23011313
Pb      13.05715250      19.47116956       6.43520294      -0.32659750      -0.04544998      -0.21389533      -4.64701862       0.34649171      -2.11713784
Pb       6.61107785      19.46243479       0.25553823       0.14296958       0.13045248      -0.12424499       1.43233313      -2.83971941      -5.24064597
Pb      12.92002985      19.34230422       0.02077563      -0.14921836      -0.10622948      -0.16763375      -4.12550146      -4.19203937      -2.44488128
I        9.81290195      20.36158785       6.35208931      -0.07570265      -0.04302636       0.04938687      -0.13845335      -1.69046548      -1.65517658
I       15.96182145      18.60523901       5.80677121       0.01890840      -0.03938596      -0.10428793      -3.21312383       1.09565910      -1.10689157
I       12.42553783      16.37362138       5.88271155      -0.16545466      -0.19351545      -0.14350562      -0.15075881      -3.31136799       0.24881193
I       13.71182970      22.40919605       6.98775379       0.03041654       0.36476900       0.01181452      -0.40382467      -0.15323157      -1.83032387
I       16.01008814      18.64141340       1.11697357      -0.40028957       0.07789343      -0.02608071       1.33301083       1.28515983       1.39893167
I        9.63916373      19.60936828      12.26514108      -0.14255867       0.08895785      -0.13749912       0.12383264       0.07930368      -1.82145041
I       13.22399086      22.63238905      12.37332523       0.21115525      -0.15327123      -0.11597309      -2.47593394       0.24397778       0.29184745
I       12.45764862      16.39312217       1.26027038      -0.00469319      -0.05329389      -0.25259883      -1.05318331       1.27545428      -0.15495097
I       18.39919676      19.52330339       9.45967552       0.06733946       0.12635767       0.07001008      -1.50258400      -2.12550918      -0.00718710
I        7.18182616      19.25365414       3.31946072       0.03487752      -0.13185622      -0.16826617      -0.80233715      -1.30245600      -2.73403842
I       12.36449951      20.76130823       2.62216467       0.02660462      -0.04175242       0.24015490      -1.45901207       0.43285219      -0.59242705
I       13.01777166      18.49192246       9.27619354      -0.04089118       0.05176441       0.37693811       0.75167915       1.28900462       3.03776661
Cs      15.25155698      16.52090517      16.15916197      -0.06065541      -0.10414988      -0.05882456      -2.58955137      -0.54127730       3.58840600
Cs       9.66380359      22.78645452      22.36701556       0.15897633      -0.20681244      -0.02440112       2.35142105      -1.01957264       3.18342214
Cs       9.36621787      16.53861021      21.98371053      -0.15612866       0.24580783      -0.11286677      -1.99118009      -1.29302263      -1.03445687
Cs      15.51519211      22.36413013      15.99495690      -0.01635728      -0.06937975      -0.17680581      -1.29997290      -1.39528861      -0.26138433
Pb       6.21797752      19.49444463      19.26124241       0.31733324      -0.01949374      -0.08761668      -1.03040570      -0.55299818      -3.35691926
Pb      12.55656413      19.53475359      18.95935313      -0.27147718      -0.10456451       0.06945572       0.45848786       2.17922509      -1.61944336
Pb       6.59423690      18.76444205      12.82658173      -0.05592745       0.31558268      -0.18451689      -1.01432208      -0.20477879       1.53749784
Pb      12.74287882      19.29221967      12.52641878       0.02788253      -0.03676562       0.14588622       0.04353650       1.06037531      -0.06406383
I        9.47170564      20.47842032      19.08275046       0.03563316       0.00390351       0.12731572       0.49287375       0.50090264       0.26287791
I       15.60130643      19.47320700      18.49294147       0.30940073      -0.12540951       0.03080756       1.55897145      -3.65327577       1.27056448
I       11.80012476      16.36471824      18.25652837       0.12824121       0.12814107       0.25317636      -0.89732392       1.08608505       3.21770085
I       13.21254302      22.93768108      19.86659339       0.07225608      -0.35360211       0.00713582       2.71459422      -0.54534390       2.50055819
I       15.90848946      18.71890862      13.06448052       0.14357617       0.02571589      -0.01459961      -1.39359024       0.03025769      -1.30576057
I        9.83027781      19.36168853      24.50047434       0.03449173       0.18658504       0.20031254      -1.11034021       3.29197040       0.03452217
I       12.90852189      22.70607750      24.52945897       0.19834706      -0.36352964      -0.04921609      -0.84935631       1.79550742       0.39157584
I       11.87462372      16.42729751      13.78389707       0.11384474      -0.21986843      -0.21038019      -0.95434366       0.26918075       0.68723053
I       17.95348519      19.97516111      22.52232445       0.08532413       0.10133636      -0.33371853       2.85961205       1.14097428      -0.53623828
I        7.03137305      18.86771745      15.82101263      -0.10123844      -0.21168710       0.17136961       2.12521594      -2.62378461       3.46745907
I       12.29577777      19.92911804      15.77360324       0.07947623       0.15008526       0.08105735       1.66029995      -0.18849672       0.08252884
I       12.88348633      18.17134102      22.15093393       0.01911950       0.16760997      -0.08967392       0.48928252      -0.24912829      -2.57016739
Cs       9.71263362      23.35236662       3.16889576      -0.07378876      -0.23156016       0.10749058      -3.56926333       1.25151875       0.34665329
Cs       3.98606850       3.00745746       9.60256681      -0.06046455       0.18199399       0.16084874      -1.06452982       0.90874582       1.31699502
Cs       3.62281520      22.73255585       9.16396262      -0.01331166      -0.02746421       0.02219925      -0.69489860      -0.77239434       1.55909476
Cs       8.88181550       4.10262121       3.44327830       0.41626485       0.27437364      -0.02421919       2.04939601       0.79207842       0.26095644
Pb      -0.03369630       0.10662172       6.37672126       0.04611514       0.08710818      -0.35942095      -2.88170757       0.25685594      -0.98756039
Pb       6.51818377       0.53120106       6.24852257      -0.09451104      -0.07601538      -0.01327528      -2.55858764      -0.82523655      -0.48295071
Pb       0.10508229       0.53628870      -0.04263180       0.13157260      -0.31672558       0.12274225      -3.33691419       1.13769486       0.03562291
Pb       6.12704630       0.33206336       0.17115944       0.00485848      -0.08007108      -0.20537376       1.71971627      -3.19410465       1.36607885
I        3.21112481       0.92097881       6.68149909      -0.08115768      -0.13135209      -0.09708578      -1.03736444      -2.13963380       2.92860273
I        9.76240784      25.17289774       6.36272631       0.01985223       0.04834888      -0.02910955      -1.04404385      -0.48844025       0.38491086
I        6.13752580      22.98872348       5.20034207      -0.13362073      -0.31552518      -0.02582402       2.20853486       0.75150335      -0.12993473
I        6.65459318       3.61676075       7.02062524       0.20069734       0.15990173       0.04195729      -0.62267729       0.44851644       0.44190214
I        9.71727455      25.22043555       0.11142315      -0.76251523      -0.03316837      -0.09917254       0.91906009      -2.22756235      -3.18891594
I        3.75207601       0.02455109      12.10095438      -0.58530103       0.21820756       0.04585527       0.49253338      -4.15400790       0.10129276
I        7.34928399       3.06362062      12.37107631      -0.16179277       0.01600905      -0.02704794      -2.84324495      -1.14235500       2.43065251
I        5.65126912      22.64039229       0.29447244       0.08212830       0.07458802       0.10268256      -2.32979528       1.91188967      -2.82136549
I       12.37875744       1.20171396       9.79858936       0.19324896      -0.25615848      -0.07814982      -0.49576540       0.31590251       0.89865618
I        0.99969975      25.38162521       2.76347807       0.00093965      -0.16673567       0.26621930       0.56984918      -1.05492076       2.71243243
I        6.89858673       1.37162505       3.14857064      -0.31938677      -0.34623338      -0.00762176       3.81511444       3.90040033       0.57425345
I        6.98865427      24.81031876       9.06336354      -0.08081336       0.00601559       0.34383033      -0.90061115       1.46263798      -1.11043034
Cs       8.49539950      22.13563400      15.65245004       0.21697567       0.15606317       0.03265767      -2.09712409      -3.25603096       1.03915302
Cs       3.73404723       4.09298389      22.59504192      -0.29529390      -0.17945973      -0.27627109      -0.07611592       2.44025697      -0.58183108
Cs       3.05698714      22.80467916      21.63345319       0.01624749       0.00196947       0.18326050       2.44639581       1.70048496       0.87533188
Cs       9.38559838       2.73530917      16.59409941       0.09229889       0.07144433      -0.22986366       0.86475458      -1.45643742      -2.55423668
Pb      -0.24149974      -0.21974507      19.12213982       0.04490650       0.41070347      -0.13429523       2.44420340       1.18682578       1.72433829
Pb       6.52135974       0.19353121      19.27179831      -0.02016069      -0.17542019       0.02262840      -0.80595720      -0.23473175      -1.94444841
Pb       0.25599234       0.49490424      12.37396322      -0.08159170      -0.59522672       0.06381540      -2.49206205       4.17553659       4.38284443
Pb       6.71355096      -0.13051259      12.40429117       0.31657427       0.00777873       0.10354043       1.23096367       0.40039368      -0.22833204
I        2.61076977       0.77744586      19.83701735       0.35658025      -0.00405389      -0.05030901      -1.60528655      -2.06274380       1.40198155
I        9.73790435      25.23704510      19.27509966      -0.27284177      -0.04275834      -0.16417084       0.01994881      -0.52024492       1.87492840
I        5.35994540      22.46492473      18.57609056       0.04478035       0.22283331      -0.08879649      -1.30296826       1.68659294       0.07056814
I        7.15687891       3.14565454      19.42818534      -0.24819589       0.29532635       0.16294781      -2.20334226       0.03255577      -2.25737105
I        9.83207742      24.46930643      12.80089574      -0.03485771       0.01734143       0.07300189       1.87102490       2.33051306      -0.08016643
I        3.11178340       0.85781619      24.54283935      -0.03300518      -0.01445068       0.10577805      -1.87680621      -0.74122800       1.17582591
I        6.15012859       3.75401561      25.23698170       0.33071165      -0.26931255       0.06697571      -0.03161614      -2.32927363       4.38747755
I        5.94044536      21.86189263      12.76301746      -0.09235599       0.35641110       0.09532399       0.18239531      -0.82481855      -2.57435739
I       12.24309302       1.21778985      22.39785212      -0.01183602       0.08968626      -0.07953813      -0.93635892      -0.53760922      -4.45180683
I        0.07161761      24.77302932      15.79513187       0.07097658       0.16553382      -0.12284489      -2.65557996       0.87942754      -0.78217129
I        6.60436706       0.24700738      15.94732670      -0.17093926      -0.01341129       0.03693203      -3.02611552       0.65867011       1.66853388
I        6.74940425      24.90144293      22.44520000      -0.20311958       0.20376026      -0.21098960      -1.51249551      -0.49416568       3.01207383
Cs      14.96885779       3.57608272       3.43430356      -0.05536869      -0.24910186      -0.30304379      -0.13716211      -1.75177065       2.59748853
Cs      10.23155722       9.98729129      10.02114651      -0.05027810       0.03212805      -0.20160882      -1.40565551      -1.37689686       0.05537146
Cs       9.96715413       3.77981747       9.71522612      -0.18446910       0.22671531      -0.05228470       2.66115154       3.74848419       1.61028052
Cs      15.41700250       9.25719210       2.93281456       0.04088536      -0.02292138       0.06470326      -1.14008618      -1.18504222      -0.57479517
Pb       6.30802318       6.86146241       6.55636260       0.12651526      -0.03819968      -0.27596708       0.90150500      -3.83462428      -0.49320288
Pb      12.89177695       6.70922672       6.48540363      -0.19965160       0.14592385       0.07109663       2.84452266       3.13409138       0.98756571
Pb       6.38034619       6.98772195      -0.24195195      -0.02231741      -0.07179352       0.54983359      -1.02571104       3.49488273      -0.04573007
Pb      12.66727824       6.50458413      -0.15700485       0.02523389      -0.08048740      -0.22900850       0.46341203       0.95069919       2.52232289
I        9.59710684       7.60783640       6.71957972       0.14573110      -0.09827251      -0.03632686       3.55695854      -2.40646546      -0.09477235
I       15.88408061       6.00625556       5.79127416       0.05864873       0.19393649       0.22185359       0.64054174       3.02385944      -2.18446894
I       11.78787018       3.56859948       5.99707173       0.03938595       0.26238392       0.00950512       3.03252417       1.28639293       3.76151333
I       13.55304007      10.07521706       6.69583049       0.04552321      -0.53028951      -0.04998153       0.13839493      -0.44794002      -0.28527350
I       16.12126337       5.97423348       0.21521353      -0.36824195       0.06079277       0.29233140      -1.46900394      -1.65548235      -0.50060930
I        9.59015564       7.23939750      12.26518684       0.03046467      -0.17676045       0.17036257       0.42081208      -0.75039410       1.51237986
I       13.09379056      10.08186645      12.56425053       0.19440438      -0.04484146      -0.01077852       0.40452657      -0.83919234       2.31971501
I       11.78198134       3.36888716       0.79901195       0.02567198       0.25805080       0.00577893       0.24385568       1.53269328      -5.88294847
I       18.33227152       7.65035096       9.63352782      -0.09730752       0.02767932       0.58553588       2.70503156      -0.01132983      -1.11442178
I        6.19357174       6.56616692       3.30260265       0.05820975       0.07540411      -0.17285371      -0.05638626       0.39259948       1.66119444
I       12.26135380       6.95490196       2.83391522       0.03446430       0.11093969       0.47679105      -0.77212127      -3.26907864       0.04549358
I       13.31771957       6.65099865       9.64185791      -0.03088318      -0.10906698      -0.19005254      -0.49536272      -2.32950307      -0.16864236
Cs      16.09130636       3.06225106      16.15179691      -0.21310622       0.23588489       0.01138927      -1.23239510       1.70375608       0.35746812
Cs       9.77089647       9.80418106      21.89447864      -0.03523057      -0.01147234       0.08584118       0.37696352      -2.08725762       0.59296256
Cs       9.33369026       3.61165997      22.47370491      -0.00646419       0.01072718       0.05297398      -0.12551181       3.02286256       2.62053997
Cs      15.92486596       9.42030888      15.73937454      -0.00416424       0.07628786      -0.12548368      -0.16872340       1.14924575       1.48161346
Pb       6.38429762       6.68262424      19.11211762       0.08021366      -0.20054612      -0.09970527       4.10977782      -0.87153975       3.81222084
Pb      12.98759696       7.07742275      18.77277490      -0.50539947      -0.27236401       0.16914039      -1.67347556       0.01470400       1.63736390
Pb       6.59576032       6.20937430      12.83287482      -0.05324170       0.09767859      -0.07274423       1.71610180       2.26583745      -2.51382592
Pb      12.73908964       6.49727943      12.91342051       0.07070810      -0.09298352      -0.22243737       0.51800699      -2.60654024      -3.26616164
I        9.71765830       6.73281464      19.17592241      -0.27576087       0.20520059      -0.02407355       1.16367575       1.30740370       2.16820408
I       15.89168211       6.34642682      18.52957537       0.08746583      -0.06815254      -0.02298494      -2.75488806      -0.03559468       0.29047470
I       12.50098769       3.62991862      18.46859160       0.01453424       0.15024878      -0.07555464       1.96403200      -1.53006082       0.55974572
I       12.92690327      10.08156804      19.73547380       0.11781872      -0.02496687       0.05075669       0.79916510       6.50847935      -4.02779669
I       15.99161533       5.94310036      13.37096988      -0.12907195       0.06083908      -0.05835359       0.20888084      -1.77233457      -1.42819388
I        9.50851105       6.75736916      25.04508252      -0.28366754       0.09164467      -0.00204032       0.21340792      -0.99144016       1.86381064
I       12.54809432       9.54505745      24.77965667       0.18039232       0.28266225      -0.00346589      -0.38647443      -0.71633751      -2.85643098
I       11.77211005       3.41645655      13.49166464       0.01177865       0.24289008       0.02644764       0.47283604       2.52400007      -0.83046057
I       18.42164128       7.40498329      22.45223744       0.03831937       0.09873245      -0.05598862       3.40139043       1.33872523       0.11240068
I        6.65113932       6.16505132      16.01875891       0.09735935       0.01111055      -0.17987109      -1.03705107      -2.45297744      -0.08453272
I       12.46052833       7.66926837      15.68357304      -0.04346454       0.08497380       0.41272694       0.77662666       3.37692579      -0.69615522
I       12.41008372       5.76557902      22.06802289       0.20872086       0.14403189       0.02349967       0.18165634       2.41213978      -0.63512006
Cs      21.62984137      10.04449608       3.41127164       0.03558665      -0.02438375      -0.04408074      -1.36673651      -1.96796522      -2.39367559
Cs      16.20764083      16.47299268       9.22716474       0.01505026       0.02414304       0.23438965       0.22602991      -0.97717246       1.07485272
Cs      16.00081437      10.69990209       9.66545734      -0.13863393       0.02719661       0.10240788       0.71470516      -1.61179346       2.64846391
Cs      22.45640607      16.36522827       2.98292115      -0.29806368      -0.01824139       0.04991271      -0.00107259       2.15784996       0.35945741
Pb      12.77715197      12.91689712       6.11258939      -0.05782987       0.30927157       0.16345363      -2.18217630       0.82258372       2.66301766
Pb      18.82853170      12.81717804       6.73543054       0.29255128       0.04796371      -0.11546210      -4.53940743      -1.14096943      -0.71744261
Pb      12.64359813      13.07102535       0.01817380      -0.00522318       0.05826238      -0.23527936      -0.80761563      -4.03340648       1.24207585
Pb      19.04804049      13.05497398      -0.03417277       0.03179766       0.04226856       0.08945566       0.65483008      -0.61238413      -4.92377240
I       15.81472929      13.82372645       6.86171294       0.27419916      -0.18435819      -0.06666228       3.99657792      -2.75955579       0.48713577
I       22.18472934      11.78304284       6.70594640      -0.08893018       0.26571418      -0.14724759       0.84261895      -1.16800454      -1.95844232
I       18.30257468       9.75110506       5.76404513      -0.08569336       0.31792014       0.05081743       0.88073232      -1.18939241       0.23825635
I       19.70442809      16.21508369       6.43846122       0.02038174      -0.39639538       0.08886850       0.32263110       1.31309116      -0.63305003
I       22.21692529      12.60942244       0.34352180      -0.37073142       0.04315017       0.08277993       0.72576448       1.45677072       4.84407791
I       15.92537843      13.87997853      12.34921551      -0.09105337      -0.06680945       0.02034482      -0.89544525       0.83141057       2.97196256
I       19.88552939      16.19747154      12.45532405       0.03364543       0.13501979      -0.07302014      -1.38903840      -1.58283608       0.27791711
I       18.52182561       9.92055200       0.89194162       0.01815717       0.02955580      -0.21049304       1.14386630       0.82954726       1.96844773
I       24.88297872      14.10438402       9.89203200       0.01401516      -0.10963179      -0.14650352      -3.34582888       2.48039789      -4.36332208
I       13.41905871      12.60938578       2.96154767       0.06976989      -0.16305244       0.02604264       1.32252881       2.17305476      -0.63901059
I       18.61851876      13.06308388       3.08462504       0.01154927       0.17721829       0.21945966       0.66635687       0.39331230      -3.00111333
I       19.40711628      12.43094348       9.90511604      -0.18154272       0.16533313      -0.16517417       5.39620947      -1.48521519      -0.97297920
Cs      22.65975349      10.02365015      15.80107595       0.02134806      -0.23566414       0.12162606      -0.14483744      -2.92913307       0.00487423
Cs      16.26919930      16.85197069      22.25891969       0.03568616      -0.21825696      -0.00993683      -2.84162067      -0.53263971      -0.46073084
Cs      16.12600855      10.57611538      22.07735110      -0.02357342      -0.07693968       0.01593372      -0.25704053       0.94499059       0.66809652
Cs      21.54169392      15.77119799      16.49114910       0.31003375       0.18068678      -0.15542503       1.99714077      -0.83678359       0.31266931
Pb      12.51661223      13.16994518      19.63444068       0.08804159       0.30589277      -0.19084784       4.05416394       0.99048497      -2.29952686
Pb      19.23083086      13.41838600      19.31877842      -0.44386397       0.06372275       0.08712788       0.29798782       3.34295699       1.04281554
Pb      12.70337444      13.08989148      13.33175887       0.04203566       0.13603392      -0.15855796       3.35407752      -1.19436848       1.61849212
Pb      18.96599585      13.28343033      13.13002649      -0.00825352      -0.15730713      -0.02266109       0.40459541      -0.24947288      -2.45476517
I       15.91322746      13.87815506      20.03163600      -0.15775300      -0.03008045      -0.12094233      -1.38352653       1.22425760      -1.73714899