480
Lattice="25.64678162947933 0.057899033481741455 -0.07761576638167539 0.0863530678383483 25.726473453776887 0.03436555766183099 -0.0998567405278961 0.02487356657828071 25.77954328172413" Properties=species:S:1:pos:R:3:forces:R:3:momenta:R:3 energy=-1743.9205322265625 stress="-0.0001666999887675047 9.306156425736843e-05 -0.0003525968932081014 9.306156425736843e-05 0.0007835675496608019 0.0002621152380015701 -0.0003525968932081014 0.0002621152380015701 -0.00018604610522743315" pbc="T T T"
Cs       9.35909984       9.24804767       2.76621194       0.16728306       0.05305750       0.23945953      -2.01500663      -0.85293867       0.98478577
Cs       3.05464225      16.50535962       9.58611247       0.21661379       0.54001608       0.22267163      -1.47318099      -0.34032290       1.67114111
Cs       2.95725006       9.91732566       9.65149768       0.16769588      -0.10585376      -0.08541723       0.81837516       0.37249736       0.94492118
N        9.12775219      16.44053068       3.45148092       1.20891400      -1.42916675      -0.61894010       0.04315826      -0.20013515       0.10576860
C       10.24298499      17.36986558       3.50950503       0.46964536       1.00343346      -0.74980212      -0.07845675       0.19356306      -0.13206482
H       11.12233494      16.83041902       3.88559706      -0.08073185       0.23940377       0.20150361       0.01405022       0.34552720      -0.26951789
H        9.96738226      18.26932096       4.07569970       0.13056600      -0.20774171       0.27232300       0.22628071       0.12613985      -0.02029491
H       10.41809975      17.71355127       2.47332493       0.20119426      -0.12899013       0.21471148      -0.02180988       0.07669173       0.04074640
C        9.55382535      15.26034303       2.55185572      -0.93044571      -0.96207042       2.22585077       0.10315093       0.36195374      -0.20349521
H        8.82030169      14.45983669       2.75686866       0.09097998       0.10404730      -0.21413988       0.01951635      -0.00080269      -0.11415672
H       10.53254089      14.84963374       2.85414327      -0.06821554       0.53353946      -0.08136300       0.04188454      -0.00413890       0.07990027
H        9.49125165      15.52091399       1.52580250       0.13720888       0.59940632      -1.09881387      -0.10967692      -0.11775218       0.06069818
H        8.32622055      16.88675415       2.99423880      -0.50006207       0.21889924       0.37767275      -0.19998677      -0.07366255       0.16268738
H        8.95787677      16.13985580       4.44085552      -0.73649741      -0.10844308      -0.36523050       0.07252854       0.16808951       0.06354333
Pb       0.21184968      13.22244833       6.55100912      -0.14492241       0.09759514      -0.09536613       1.04754761      -0.20555775      -1.49890202
Pb       6.21580774      12.66039811       6.72087680      -0.04438806      -0.03251951      -0.49918150       1.85681393       3.26471183       0.54091346
Pb       0.26475489      12.95733694       0.05932625      -0.36887351      -0.02088704       0.13992494      -1.37304050      -0.95911773      -4.88066857
Pb       6.67594494      12.52278133       0.06636943       0.02052509       0.55476311       0.03047502      -2.22264252       1.91383820      -4.08068854
I        3.47440203      14.24200334       7.00189780      -0.11654264      -0.46300011      -0.18484137      -1.16941601       2.89868460      -0.61244846
I        9.39955150      12.12694355       6.31990480       0.12603733      -0.10316196      -0.00001653       0.32687593      -2.97637793       0.19934991
I        5.29143457       9.48976310       6.57570436       0.06434351       0.24171329       0.09086558       1.61045020      -0.58182785      -1.32817540
I        7.43410426      15.97478181       6.65568328       0.01092168       0.08362578      -0.12169853      -0.25624456      -2.45517488      -0.74772371
I        9.62591838      11.62723888      -0.00063684       0.18201310       0.15156282      -0.18450694       1.23846033      -0.12171030      -0.38241622
I        3.52501061      14.12660568      12.48221667      -0.21777791      -0.34455484      -0.08473850      -1.63368023       0.09341040      -1.23612310
I        6.49565421      16.28606274      12.36303708       0.25386213      -0.12981301       0.22429605       1.30848545       0.13059565       1.55622341
I        6.02273280       9.64606205       0.19054302      -0.28668951      -0.44424575      -0.17188376      -1.88383318      -3.33990223      -0.46866818
I       13.13787122      13.11348459       9.62310344      -0.04763192      -0.03024513      -0.20379915       0.59148086      -0.75446579       4.31090843
I       -0.25099278      12.73358524       3.33361695       0.15085701      -0.03806757       0.13307180      -2.17936389      -1.16297841      -1.95690769
I        6.91319653      12.06100897       3.16661510      -0.21900235       0.03251519       0.19643509      -0.64064164      -1.74119049      -1.31202827
I        7.08917512      12.70923302       9.51361680       0.03411234       0.01571580       0.24636568      -0.25498210       0.97707115      -2.84112103
Cs       9.72956545       9.53160042      15.99739753       0.01105164      -0.03336136      -0.03516881      -0.36944386      -4.79178248       0.02867230
Cs       4.43611940      16.36906996      22.41497932       0.05307498      -0.15309418       0.01849325      -0.27786978      -0.86886388      -1.02569196
Cs       3.64233455       9.79387378      22.85095988      -0.10154312       0.00074888      -0.09306513       2.57900129       1.12635333       0.74232334
N       10.81746896      16.18536687      15.77358445       1.83642377       0.79097504      -0.02922547      -0.15410268       0.25296322      -0.25888540
C       10.26332220      14.91385924      15.25118461       0.34861313      -1.09440267       1.15129518      -0.13949587      -1.36310815      -0.69507802
H        9.57120854      14.51472878      16.05423696       0.22029339       0.34995464      -1.15495095       0.03076017      -0.04291694       0.15060805
H       11.06742952      14.12066862      15.06168838      -0.66618344       1.06836526       0.41227322      -0.31585048       0.26367964      -0.19391638
H        9.85931378      15.17912260      14.29218007      -0.92647616      -0.16879406      -0.55105260      -0.04557976       0.49631238      -0.09604879
C        9.95902878      17.42023994      15.74613936       0.18984025      -1.45215880       2.55529067       0.29173642       0.02381144       0.76216018
H        9.16348249      17.29002641      16.46566955      -0.46829101      -0.36890617       0.43172434      -0.10445848       0.08191936      -0.01165887
H        9.51816352      17.56390421      14.84007141      -1.01649283       0.24885094      -2.99184214      -0.13633723      -0.07344562      -0.34132990
H       10.47552978      18.28862971      16.08100966       0.95913750       0.74563487       0.13596291       0.03976815      -0.27482342       0.05509423
H       11.69205047      16.40291998      15.20783024      -0.55421126      -0.17133120       0.20529407      -0.02602225       0.04576657       0.09562730
H       11.18542906      16.04910210      16.73874501      -0.04208987       0.03405646       0.07355336       0.03134386       0.00947691      -0.01607444
Pb       0.19181490      12.92136068      19.51962354      -0.08866767       0.13220966      -0.06099814      -2.23733377      -5.90299376       2.16128967
Pb       6.44238160      12.86183641      19.11081759       0.19972212      -0.00392409      -0.00201769       4.90784852      -4.17061003      -1.33321777
Pb       0.17809989      13.41545380      12.75935518       0.24780925      -0.13550140       0.02186809      -3.63788169       0.15342641       2.69804909
Pb       6.83478191      12.69973410      12.61437571      -0.16441408       0.01831587       0.17141398      -0.24933163       0.10192752      -1.42486655
I        3.21590221      13.36127922      19.28606226       0.41443931      -0.00796511       0.14824053       0.66996348      -1.20310012      -2.63166640
I        9.57817347      11.87506739      18.98923054       0.08149120       0.16077510      -0.03463934      -4.03992331       1.14347921      -0.66937159
I        6.25108569       9.58383196      18.94119995      -0.10209372       0.68107945       0.05711971       0.12762691       0.38898083       2.39275233
I        7.43781196      16.30046306      19.19080437      -0.19716662      -0.16385855       0.05369822       2.77091842       1.89801343       0.49489132
I        9.88125739      11.98421429      12.54393790       0.12179541      -0.02845952       0.02889874       2.03458092       2.15170002      -5.01273749
I        3.06931304      12.83990519      25.88384395       0.53692906       0.07137284       0.02572878      -3.30507193      -0.56984282       1.49296085
I        6.45991765      16.11372994      25.92266253      -0.03305820      -0.10713744      -0.07345251      -1.40467067      -0.15384127      -1.78050305
I        5.93099731       9.72828146      12.44779483       0.01316335       0.10136159       0.01399536       2.69179823      -0.99327308      -0.19991938
I       12.31901942      12.55315908      22.24050079       0.24256342      -0.00819292      -0.15127581      -0.91189346       2.88138779       1.17801829
I        1.29864741      13.33321624      15.92528308      -0.26954444       0.12441074      -0.11131310       0.12832782       1.15799696       2.43651296
I        6.81513169      12.53388122      15.86595726      -0.10640632       0.10328118       0.15532044       2.35345351      -0.70355307       2.17355521
I        6.64544662      12.82933501      22.58148651      -0.24847088      -0.11262350      -0.27575605       1.59209524      -0.90770482       0.92587491
Cs      15.54681958      15.50861691       3.22021413      -0.02500336       0.17895476       0.00952932       2.79143386       1.04031373      -1.99455247
Cs      10.34294736      22.89768918      10.11721369      -0.08829825      -0.01273002      -0.01326644      -1.96264131      -0.94241877       0.14191645
Cs       9.99551079      16.27953269       9.59348386      -0.00528224      -0.04750653       0.00540932       0.36113457      -1.73718207      -0.28170835
Cs      15.81544080      22.04725720       3.37680652       0.14581486       0.03280482      -0.08684756       1.37424512       0.71696718       1.88549087
Pb       6.74991791      19.22219924       6.56710595      -0.31281765      -0.08251010      -0.01777027       0.64577314       1.37100855       3.22971849
Pb      12.73826112      19.55243065       6.73646536       0.32024405      -0.22861805      -0.09921355      -1.67009645      -1.32738620       0.50506933
Pb       6.21035450      19.16489988       0.50948522      -0.00113660      -0.06227582      -0.73720566      -1.69309628       2.48390003      -2.84818863
Pb      12.76092202      19.10770918       0.05776218       0.17087581       0.13971544       0.26884988       1.18045393      -1.09442093      -2.96186512
I        9.73448016      20.22390519       6.85360578      -0.01722576       0.03908945       0.21951358       2.67545712      -0.58156328       0.76368971
I       16.29463254      18.87044805       6.22365223      -0.24598627      -0.01029845      -0.07871321      -1.21369355       0.06236528      -2.21639257
I       12.70583417      16.09860976       6.55686777      -0.05945850       0.01917011       0.06973035      -0.67952386       0.33637570      -1.66919013
I       13.81862539      22.46640878       6.84353683      -0.23596743       0.01768812      -0.29292588       5.13934820      -0.26788973       1.96829466
I       16.42236858      18.82086842      -0.16345905      -0.10347535       0.15622126       0.39948748      -3.27664190      -1.38354082       0.58048965
I        9.51289425      20.01579351      12.43318048       0.05249587      -0.05670803       0.09328601       1.01548487      -1.41078179      -0.15603407
I       13.57495745      22.60773643      12.60740221      -0.00593584      -0.27678043      -0.03168197       0.08276179      -0.16051007       2.60181055
I       13.15315260      16.02783708       0.50699702      -0.14700613      -0.07525971      -0.01553535       0.03732725      -3.28105713      -0.90710224
I       18.65563205      20.51309417       9.54436380       0.01514418      -0.20493585      -0.37317336       1.57807280       0.98485160       1.06888452
I        7.12869690      19.60345298       3.22988255      -0.03395731      -0.18947029       0.60772534      -1.97380704      -1.56795581      -0.72686780
I       13.05642985      19.67694515       3.40547503      -0.00052891       0.04627815       0.03388976       0.53021047       0.94083592      -1.42112739
I       13.06582387      19.67160655       9.94694739      -0.02840017      -0.13340815      -0.21195028      -1.84968320       1.63679625       2.06712889
Cs      16.75756588      16.32519542      16.23999056      -0.00175267      -0.05977654       0.04248531      -1.64131591       5.68960586      -0.82669210
Cs       9.54931087      22.17742993      23.39805696       0.10196195       0.03701045      -0.19498160      -3.97535973      -0.47927516      -0.72893230
N       10.10611370      16.26684016      21.79543589       0.11932508      -2.35137318      -0.41426700      -0.15020082       0.17357577       0.41665712
C        9.72048537      17.68343210      22.07059464       0.46595060      -0.75679136      -0.02243441      -0.55823536      -0.08046736       0.24592757
H        8.63713958      17.73359233      22.20668199      -0.12453016      -0.13044538      -0.12396923       0.20493204      -0.13576709       0.03058711
H       10.05086193      18.20242726      21.15285744      -0.10870619       0.42798088       0.59041262       0.05270851       0.21684583       0.21033682
H       10.21403602      17.95693731      23.01566496       0.05842431       0.27518735      -0.39827460      -0.35726245      -0.12156123       0.06666416
C        9.84173195      15.18389400      22.84992384      -0.21962730       1.78311376       1.11584182      -1.00161514       0.02375458      -0.87515564
H        9.71297297      15.66735459      23.84283601      -0.18331766       0.00984503      -0.57159150       0.21430334      -0.10008088      -0.13450637
H       10.69592464      14.54407824      22.95005092       0.64503967      -0.41983878      -0.24236084       0.14752157       0.13752955      -0.17475081
H        8.97532373      14.61517995      22.57488383      -0.60756198      -0.28810611      -0.16010238       0.17417232       0.01159282      -0.11489119
H       11.14067648      16.16327049      21.65062694      -0.68281361       0.46940542      -0.45002149      -0.17406321       0.17440227      -0.08490394
H        9.59943590      15.87739869      20.92205009       0.75343777       1.00468513       0.71186836      -0.17139956       0.10986338      -0.17936227
Cs      16.16063764      22.66329881      15.34449890       0.04237110      -0.09363632       0.24781049      -1.07428308      -1.59127439       2.12982927
Pb       6.25720798      19.38580686      19.34735234       0.17926058      -0.04265209      -0.16831522      -1.15998589       2.07096951      -0.40582445
Pb      13.03314652      19.48601395      19.48041886      -0.43540138       0.07375675      -0.06248196      -0.51331449      -1.32821095       0.72209027
Pb       6.08991748      19.40249697      12.81573369       0.23629878       0.09066580       0.13755618      -1.63056429      -0.89311410       0.92460590
Pb      12.61339902      19.31344926      13.14852742       0.05795199       0.04070050      -0.24537921       1.07328281      -0.97911242       2.51475288
I        9.65505105      20.20558658      19.20185158      -0.23533286      -0.02297436       0.01502629       0.27674982      -0.57378912       1.48049053
I       15.99213228      19.22154721      19.56025162       0.10153918       0.00998826      -0.17025939      -0.83094287       0.35232556      -1.44853052
I       13.04652429      16.11976762      18.73116707      -0.11667993      -0.02775546       0.00882460      -0.56813429      -0.83444900      -2.14374008
I       12.74825620      22.82653446      19.77047054       0.02852495      -0.04787134      -0.10103593       2.59960062       0.62394442       0.40487794
I       16.04400538      18.38965424      13.04240340      -0.35353932       0.21829065      -0.00455646       2.16169446       2.26777012       1.77434147
I        9.59705586      19.37367262      26.18307714       0.08819042       0.11339603      -0.24239673       1.76154134       0.19751901      -1.62274166
I       12.57066770      22.63310414      25.80882368      -0.10695941       0.15770365       0.15775973       0.91773538      -2.83386661       0.79558178
I       12.52134377      16.22561214      12.67045960      -0.06348556      -0.02992545      -0.05108820       3.63890941       0.38725822       0.39747769
I       19.17882945      20.32227753      22.59529299       0.18406839      -0.06446215      -0.07156567      -0.17778221      -1.96872018       1.62455459
I        6.29010214      19.42982807      15.97599208       0.05588920      -0.02288467       0.37019680       1.75176396       0.07728294      -1.08915009
I       13.07008427      19.92681758      16.19196701       0.09422823       0.11566803       0.17734909      -0.04081524      -0.81408458       1.74395885
I       13.25267513      19.71945278      22.86257813      -0.10438891      -0.01133371      -0.33135427      -0.79009554      -0.40736778       1.11183761
Cs       9.57346300      22.26829484       3.79951588       0.16761425       0.16306483      -0.25037819       2.59108909       3.09618770      -1.60108460
N        3.21558308       3.48831356       9.94406237       1.25201911       0.27257868       0.18568327      -0.51155410       0.96341831       0.70714467
C        4.67850090       3.22623803       9.51884007      -0.32811855       1.90665140      -1.06333886      -0.65866884       0.07945156      -0.22161540
H        4.88436630       3.88686780       8.63235517      -0.19408518      -0.42125753       0.62387742      -0.33192084       0.30767210      -0.11437823
H        4.82983730       2.19743999       9.17383100      -0.16654058      -0.09873251       0.52287774      -0.02793004       0.07958424       0.03085725
H        5.30086841       3.59384091      10.35105956       0.05708001      -0.52917194      -0.21514240       0.07776637       0.29538760      -0.27836338
C        2.23099650       3.03755835       8.90654984      -0.28000916       0.64929637       0.21638090      -0.13128288      -0.38858485      -0.47364035
H        1.24917128       2.87161671       9.38250342       0.26530644      -0.11409907      -0.09333660       0.19115277       0.05779247       0.23175626
H        2.67068788       2.14740813       8.48779493      -0.13935657      -0.62596272      -0.24190873      -0.16039122      -0.09213993      -0.22751379
H        2.09709299       3.78571714       8.08931320       0.37053107      -0.16173867       0.59812228      -0.21627183      -0.16240554       0.02347636
H        3.06593059       4.50427972      10.23092157       0.12460199      -0.99228464      -0.41978183       0.02033423      -0.04407643      -0.02696189
H        3.21768423       2.92708701      10.81836824      -0.97470260       0.05240160      -0.08892626       0.21800127       0.21216377      -0.23666772
N        3.20971148      21.86368675      10.06824583      -0.41974218      -0.77344026      -0.35632894       0.53591740       0.75186585      -0.72807938
C        3.12388011      22.94755894       8.99900944       1.84268709      -0.02961224       1.85808849      -0.52601338      -0.92315480      -0.50812778
H        3.84740294      23.75555417       9.28304074      -0.54951828      -0.53281464      -0.14187018      -0.10338794       0.18351290      -0.03089965
H        2.13475737      23.29398552       8.99134831      -1.55193862       0.71144683      -0.05514746       0.34401327      -0.12454791      -0.01895505
H        3.38922517      22.54956422       8.04717290       0.30986297      -0.59874821      -0.85338650       0.13702561      -0.22624100      -0.06374236
C        4.58834743      21.43418270      10.40835435      -0.47646013       0.97180886       0.74700756      -0.96828508      -0.48784206       0.32277519
H        5.08542995      21.20302519       9.50041392       0.69935213      -0.15972891      -0.98567968      -0.01612006      -0.07217722      -0.27702795
H        4.55483334      20.56596313      11.04267993      -0.38070817      -0.70881654       0.30079767      -0.05324859       0.10887068       0.01872829
H        5.10545469      22.20119775      11.01875569      -0.20753284       0.11778685      -0.60014963      -0.09897106       0.29299654       0.18640406
H        2.57198073      21.00673722       9.80291451       0.73923182       0.81746468      -0.05945361       0.26467732       0.12185309      -0.21668092
H        2.75551748      22.15337279      10.94172882      -0.17991273       0.46840825       0.08298051      -0.06563304       0.02711247       0.21295170
Cs       9.68573435       3.08127106       3.15265410      -0.02529984       0.11237672       0.11888946       1.06069652      -1.36704474      -0.66348171
Pb      -0.34767969       0.56721379       6.25189496       0.11749438      -0.58779359      -0.03303759       1.27799828       0.51832735       0.30855591
Pb       6.42539564      -0.09327571       6.07680570       0.00684682      -0.07837971       0.10097827       1.27352440       1.36988858       2.95136272
Pb      -0.03270247      -0.18106913      -0.05309484      -0.20513201       0.10994947       0.07305457       1.21158651      -4.84017560      -1.70068888
Pb       6.41697197      -0.12367032      -0.14293930       0.22312441       0.14581047      -0.10759964       2.46167908      -2.97027695      -2.59508414
I        3.45565749       0.40892382       5.61883640      -0.38494449       0.04190634       0.07633059       0.54270461       1.93849904      -1.54942796
I        9.78121972      25.34918127       5.97359836       0.17533494      -0.00661219      -0.03587046       0.06782231      -3.95278845       2.28218957
I        6.05299054      22.42825740       5.57485929       0.05508883       0.13106795       0.24249299      -1.11064290      -2.56355396      -0.11976200
I        6.72458326       3.24368722       5.75721946       0.13201007      -0.10709334      -0.04710439      -0.01808550      -3.24665714      -0.71741559
I        9.86155942      26.32637880       0.49161638      -0.28415579      -0.13329633       0.02459464       0.40515582       2.71843243       0.54638542
I        3.08596737       0.59371560      12.84951237      -0.18744755       0.00538947      -0.03941741       0.88181940      -2.76881420      -0.87274800
I        6.24659510       3.26376833      13.63372853       0.15290868      -0.00910656      -0.17671055       1.98261704       1.19862124       1.92686744
I        6.59252504      22.50486573      -0.24651501      -0.09127808      -0.06061699       0.13715553      -1.78173202       0.48946076      -3.25627026
I       12.89056612      -0.21534233       9.24892391      -0.03587749       0.09407261       0.67275392       2.61723850      -1.66754125      -1.42453988
I       -0.95858164      25.55113774       3.24363024       0.21307916       0.18595206       0.10259232      -0.02898478      -0.48199740      -2.02364112
I        6.32971586      -0.17692456       2.99536914       0.16859828       0.07321176      -0.05718422       3.33681726      -0.64407083      -1.06121445
I        6.83915796      25.26684615       9.83371384       0.08744055      -0.21620811      -0.74784320      -1.23892806       0.05601185       0.29020654
Cs       9.69061168      22.52907212      16.28902215      -0.04136106      -0.01830039      -0.01851726       2.06863125      -2.09700427      -2.40377283
Cs       3.59993608       3.02431446      22.98447654      -0.10228785       0.04785887      -0.07240997      -1.52192920      -0.28988183       2.54863740
N        3.86939162      21.97827810      22.38517009       1.37227204       0.48223367       1.95906184       0.44568688       0.85083808      -1.53692406
C        2.79234056      21.05464452      22.55127206      -2.12316601      -1.49440227       0.09399614       0.03544868       0.66532182      -0.65747661
H        3.07741477      20.00723582      22.72452522       0.39119765       0.14132674      -0.22156500       0.10373563      -0.24884651      -0.15700679
H        2.08299204      21.10113813      21.72535262       0.06246669       0.03174421      -0.43269973      -0.10348619       0.14712689      -0.23733657
H        2.19571925      21.36436566      23.42703143       0.22159802      -0.19474742      -0.02378539       0.00407731       0.25060629       0.01580161
C        3.37034448      23.28531746      22.97061498       0.21257231      -0.44789846      -1.32080629      -1.43122568      -0.49168184       0.60629478
H        2.86017454      23.22984984      23.91681997      -0.02234620      -0.60807570       0.61907530      -0.23453121      -0.22478202      -0.00300455
H        2.64328986      23.62037672      22.23272920      -0.09739149       0.49398763      -0.11789443      -0.14507908      -0.14716388       0.13109825
H        4.22566476      23.90490636      23.03781593       0.83941473       1.13768728       0.02214953      -0.00458868      -0.12277220      -0.07306190
H        4.24397590      22.19105223      21.43840935      -0.15791406      -0.40099821      -0.29686081      -0.20216612      -0.17706237       0.07825893
H        4.68802779      21.56549437      22.93488991      -0.44360004       0.77979964      -0.50310637      -0.13285157      -0.05124697      -0.18755888
Cs       9.31826248       2.74101063      16.32095630      -0.09397081       0.02997028      -0.12226075      -0.56258550      -1.35581875       0.43492466
Pb       0.11305244       0.35056985      19.32849996      -0.02539609      -0.04459291      -0.08842429      -0.35980938       1.69517201      -0.65332648
Pb       6.24660533       0.27584737      19.24746605       0.17782018      -0.16376081       0.18476029       3.14497758      -1.98176723      -4.57038427
Pb      -0.11721067       0.46990240      12.94388594       0.00310719      -0.35445367      -0.05155703       2.36456161      -3.79724379       0.19434293
Pb       6.02958901       0.10117804      12.50696145       0.27309068      -0.06731536       0.91050812       1.86005318      -1.85568055      -1.71148175
I        3.20553391       1.09844731      19.42682528      -0.29516249       0.05497141       0.19678202      -0.57234359       2.47923548       0.76345938
I        9.47525721      25.45264791      18.78831322       0.22576016       0.01181851      -0.05093868       0.88406402       0.11154251      -1.28314310
I        5.93715211      22.59708669      19.29505728      -0.13152985      -0.14388244       0.03027365       1.34395438      -0.09269397       2.08931275
I        6.78851339       3.43933260      19.39221519       0.04570441      -0.16152505       0.08656251       2.70294610       2.73149320       0.65189501
I        9.89590755      25.18693268      13.69905464      -0.08772686       0.09923337      -0.15488447       2.08326344       0.32691463       2.25051442
I        3.27533093       0.25925060      25.98630925      -0.28558831       0.16664291      -0.01514207       1.19181314      -1.14632859      -1.15263748
I        6.70359384       3.14123630      25.07677227      -0.02488488       0.20526280       0.12215506      -0.94888632      -1.46589605       4.72496003
I        6.39880326      22.77064447      13.58446588      -0.08330682       0.09371575       0.00330343      -0.42858174      -2.10776413      -1.73949413
I       12.49789009       0.41237793      22.58648613       0.01437415       0.03048725       0.04418365      -1.35902423      -0.83357185       1.64452396
I        0.33766835      25.85133256      16.19769160       0.09666678       0.03991326      -0.19302118       0.80543152      -0.18079942      -1.44424488
I        5.78806385       0.49729538      16.31104011       0.03898681      -0.12872239      -0.25298358      -4.74358687       2.70333013       0.10733360
I        7.46778723      25.60771727      22.48104148      -0.10876430      -0.08117471       0.06098482      -0.07940060       0.05058291      -0.63325322
Cs      16.42840711       3.10134771       2.93118208      -0.11769126       0.10106172       0.01975082       1.67478087       1.10820711       1.03447847
Cs       9.75037544       9.64879306       9.25412960       0.00536294      -0.06288683       0.00801930      -0.29552390      -1.65419407      -0.49873646
N       10.25501096       3.24829969       9.75210494      -0.50712793      -0.75565027      -1.33151815      -0.20284074      -1.00678731       0.31692351
C        9.51792356       1.97929133       9.98385307       0.21872842      -0.29694752      -0.26182503       0.69010096      -0.18523270       0.38164985
H        8.85704688       2.06114334      10.81769877      -0.17774492       0.22700122       1.17707523       0.03422358      -0.02333427      -0.13554040
H       10.20339073       1.12619454      10.04821882       0.13234234       0.19582360       0.32225802      -0.25437632       0.18709377       0.08347966
H        8.84522842       1.76565838       9.18324636      -0.37162781       0.11079535      -1.21354875       0.53742463      -0.18643376       0.01624016
C        9.45445849       4.36548282       9.11861007      -0.02985727      -0.71080424       0.41865004       0.11154148      -0.33021027      -0.18619244
H       10.19527596       5.11999637       8.85697673      -0.20054230       0.47610296       0.09982328      -0.22429364      -0.01932881       0.09597155