600
Lattice="25.87218465992363 -0.0032759191470103617 0.08918563241743126 0.05227597459793482 26.033791242530892 0.06496336398272497 -0.015430263088235795 0.06779800348736349 26.294121214934016" Properties=species:S:1:pos:R:3:forces:R:3:momenta:R:3 energy=-2377.16650390625 stress="0.000678752490784973 -4.1369657992618165e-05 4.73418076580856e-05 -4.1369657992618165e-05 0.0013518325285986068 0.0002629303780850023 4.73418076580856e-05 0.0002629303780850023 0.002090570749714971" pbc="T T T"
Cs       9.93777691       9.48196099       3.29312589      -0.02065900       0.10356442       0.03107797      -1.10581828       0.23117569      -3.48038402
Cs       3.30215722      16.90928392       9.36301881      -0.01564495      -0.05270834       0.01640263       2.46866145       3.59289390      -1.05198311
N        4.10737225      10.49134899       9.44827267      -0.55157494      -0.06654895       0.11380765       0.71266443      -0.42574233      -1.62257399
C        2.67942263      10.83935645       9.82195981       0.89751140       1.84093832      -0.47304726       0.35410626      -0.08065155       0.28941572
H        2.10225308      10.38160149       9.02500283      -0.66440550      -0.44802642       0.25346557       0.34479972      -0.08724794       0.14805393
H        2.53116327      11.98720189       9.66795516       0.30064811      -1.75868538       0.63577884       0.10288001      -0.16310628       0.20250385
H        2.48230020      10.47508946      10.86005895       0.03565728       0.30443937      -0.85151446       0.09880829       0.16199801      -0.19078595
C        4.42656275       9.11890680       9.85510465       0.42274645      -1.40919123       0.13204510      -0.93162995      -0.13290104      -0.23406374
H        4.31837755       8.96165124      10.95824396       0.07399931       0.42227238      -0.62909644       0.02762549       0.01301342      -0.03430936
H        5.46494452       8.88900765       9.54137622      -0.29497617       0.07742354       0.25350484      -0.10558394      -0.05226821      -0.08879778
H        3.78651061       8.33667956       9.35373675       0.19143221       0.98736964       0.17138588      -0.10505486       0.04819055       0.24262097
H        4.83344499      11.18562011       9.76511314      -0.15934612       0.07163721       0.95747015       0.29486261       0.17950636       0.42584451
H        4.28811599      10.61392845       8.43302802      -0.44763271      -0.31009435      -0.48412549       0.18505282       0.04545924       0.21003081
Cs       9.11739169      15.54877728       2.99568723       0.11237449       0.08780336       0.13327371      -2.72946023      -0.19639754       0.74726471
Pb      -0.28335215      12.86702239       5.96235585       0.10120026      -0.08471118       0.44386373      -1.27002739       2.54941682       0.99746658
Pb       6.30971643      13.29036704       7.01565275       0.08073432      -0.20171962      -0.01033748      -3.43648672       1.77373346      -0.76606896
Pb      -0.35918805      12.83553835      -0.08893429       0.06024316       0.44172087      -0.11795630       1.24002794      -1.65094958      -3.57547001
Pb       6.60852868      12.76946259       0.31797527      -0.17679926       0.12018245      -0.08096682       3.04748201       3.65655874       4.76867317
I        3.19004927      13.11568920       6.96615149      -0.20449861       0.31183182      -0.12130844      -1.26496347      -1.80075536       0.29451170
I        9.45847714      12.59764438       6.84398764       0.30655857      -0.04789372       0.02606466      -1.59262117       2.85703787       1.85028743
I        6.10755197      10.09998491       6.39661180       0.02572783      -0.12908317       0.15199200      -4.53557634       1.77306159       1.12299369
I        7.43573517      16.35124789       6.39913984      -0.13370543      -0.00305226      -0.02541975       0.31582396      -0.35947594      -2.85479793
I        9.69842986      12.47576379       0.10568528       0.02534485      -0.13737890       0.08789225      -0.27027065      -4.35611980      -1.34536476
I        2.98151896      13.61472716      14.00853780       0.11898020      -0.21354353      -0.45156328      -2.81138951       1.26539555       0.04922008
I        6.79110773      16.16855072      13.19888444       0.05483975       0.05055665      -0.12353075       0.84186610       0.53724036       1.00501846
I        5.76978034       9.89000632      -0.38049064       0.00963354      -0.10155311       0.13664633      -0.45847527       4.08060503       1.29507019
I       13.79493990      12.90530575       9.74164266      -0.02771418      -0.00673267       0.36937533       2.13328937      -0.45457645      -2.53776169
I       -1.04752769      12.99625895       3.10423108       0.03991481       0.15092344      -0.16745048      -2.67141936      -2.69111861       0.89867226
I        7.01194182      12.55210559       3.39767722      -0.05817986      -0.03945722      -0.01152478       4.99693591      -1.47500817      -3.60201210
I        6.31902676      12.96615184      10.21576649       0.06734428       0.25956467      -0.04881807       2.00305846      -1.70143869       3.42698770
N        9.74957595      10.00722633      16.09664406      -0.05146181      -0.92902614      -0.89966140       0.19817041       0.22884422       0.30072448
C       11.18280012       9.68572094      15.82046871       0.83623738       0.35813408       0.68081758       1.14603151       0.00157960      -0.05114111
H       11.68312781      10.64191470      15.65725780       0.25081747       0.15030419       0.18390433       0.14849020       0.03174195      -0.38924309
H       11.45476394       9.06295076      14.94929799      -0.81144733      -0.01878689       0.10215816       0.01968210      -0.08231293       0.00153841
H       11.57572238       9.21395462      16.72413197       0.08123464      -0.05351273       0.03371161       0.05427636      -0.05788473      -0.07194843
C        9.31376421       9.89857453      17.53432771       0.61910446       0.60675560      -1.11601040       0.10393727       0.53424449      -0.09370700
H        9.38349435       8.90603163      17.90836084       0.54830665      -1.12810199       0.09739364      -0.21630331       0.23653087      -0.06814179
H        8.28970861      10.15960344      17.62891944      -1.16417313       0.61444443      -0.06823532       0.04286772      -0.08028613       0.03150290
H        9.93638601      10.58853668      18.07326630       0.33487181       0.36835157       0.56826134       0.01752528      -0.10206026       0.26545393
H        9.24175619       9.34616815      15.49244590      -0.48357518       0.04214000       0.25310795       0.01998831       0.00192303       0.12036639
H        9.56536450      10.95505671      15.67475786      -0.22396894      -0.02859843       0.28621530       0.07337381      -0.04832046      -0.26707127
Cs       3.47343554      16.35406357      23.71008854      -0.04321783       0.09877303      -0.09696008      -1.89905355      -2.06698548       0.61707425
N        3.00290555      10.08528194      23.47868136       1.67346112       0.96785913       1.00317907       0.86703985       0.81064714      -0.25432322
C        2.69361414      11.19545079      22.56437961       1.11585964       0.00806117      -1.30213894       0.38921481       0.49271069       0.73705285
H        3.56991062      11.23831165      21.87454186      -0.38146884       0.08943706       0.17486436       0.20533486      -0.00297795       0.19023413
H        2.70055958      12.13175105      23.13692134      -0.45397256      -0.07247910      -0.07636597      -0.36168386      -0.15068787       0.02871722
H        1.82153425      10.99042054      21.91366601      -0.01243704       0.06605154       0.67187249       0.11312342       0.13031757       0.15531324
C        3.18849467       8.74048333      22.86521954       1.10468477       0.26798725       0.27956594      -0.00878031      -0.20209048       0.57821922
H        2.29990932       8.48058974      22.33477393      -0.70713822      -0.29817105      -0.53218014       0.12832442       0.22818828      -0.11331111
H        3.38271808       8.08419745      23.69171791      -0.20546308      -0.75699183       0.53702244      -0.11916538      -0.14230592      -0.04044666
H        4.11095386       8.65180610      22.24847348      -0.52587473       0.60582303      -0.00740912       0.10760318       0.10997011       0.12095328
H        2.30916561      10.08463143      24.23039741      -0.57991952      -0.43086198       0.30258564      -0.00824612      -0.04263030      -0.17895937
H        3.90718497      10.37865205      24.03802003      -1.04730224      -0.67049871      -0.82525474       0.01723870      -0.17452353       0.37075307
Cs      10.12357146      16.01383866      17.06847127      -0.06700695       0.02613905      -0.01869932       0.02993912       0.60623560      -0.24433748
Pb      -0.08664742      12.86931131      19.74052632      -0.04168711       0.28348886       0.04815616      -3.16977258      -0.85588781       1.85111090
Pb       6.18118920      12.98361994      20.20106546       0.05657144       0.03692783      -0.07588708      -2.18497078       0.68821265      -4.01784383
Pb      -0.20151177      13.58156055      13.35833663       0.15134452      -0.00416404       0.10896295      -2.11939481       0.63284661      -2.37690338
Pb       6.40745242      13.21190317      13.75262216      -0.05591703      -0.29163253      -0.14349446       1.23479634      -2.67950649       0.01862865
I        2.93945015      13.88106678      20.14132802      -0.03537427       0.06495225      -0.18310296       1.53395427      -2.70951194      -0.46138809
I        9.50315005      13.18627933      19.89156553      -0.08843535      -0.09862378      -0.06120192      -2.54575696       1.57257780      -0.29479731
I        5.92097981       9.56364575      19.87397815       0.04900356       0.05566873      -0.00268544      -0.49499988      -0.56486606       0.56265415
I        6.11388719      16.19872108      20.27445028       0.08374261      -0.37281863      -0.01689662      -2.95134354      -0.64273579       1.61785193
I        9.71360498      12.72837927      13.92608580      -0.04229833       0.11703633      -0.11398116       1.19635016       5.13882836      -1.72975343
I        2.82489370      13.65635975      26.22833128      -0.01358567      -0.10028217      -0.00058512      -0.30358700       0.21206902      -3.60183369
I        6.42457770      16.51819273      26.55041631       0.08275953      -0.20314958       0.01781592       0.65915159       2.46115712       2.45190997
I        6.07330210       9.78893445      13.73730816       0.10829134      -0.03030902       0.04161116       0.35694920      -1.47980501       4.47612709
I       13.71731246      12.91166215      23.42292305      -0.11099349       0.03949470      -0.05581710       1.44816158       3.81855079       1.01501585
I       -0.26612542      12.92951230      16.55840239      -0.03711483      -0.06988816       0.15211754      -1.25497322       0.27623583      -0.05769741
I        6.50321333      13.73053623      16.70519994       0.02039069       0.05417400       0.28383492       1.48430517      -2.46156731       2.41810191
I        5.88568625      13.24188305      23.35125038       0.08351602      -0.01728206      -0.09102350       0.76938929       2.74288578      -0.33121127
Cs      15.23911471      16.28519702       3.24140307       0.20486191       0.03916487       0.29493094      -1.28014676       2.01441918       2.46809076
Cs      10.15545301      22.59782817       9.71018383      -0.00723723      -0.00747174       0.15375012      -0.85901443       1.26005143      -0.42389923
N        9.70401526      16.00774031       9.20463297      -0.26328174      -0.54293448      -1.66888528      -0.22183210      -1.44706154       1.14401627
C        9.83558271      17.30480720       9.92608195       0.16249357       0.06030846      -1.20604181       0.06274941       1.10644137      -0.86157167
H       10.85157622      17.37141152      10.31696611       0.04960574      -0.01867674       0.26707017      -0.17660879       0.10630903      -0.14557840
H        9.07921601      17.23428294      10.67110493      -0.59832246       0.55854943       1.01070018       0.15135615      -0.00800474      -0.07150239
H        9.67511534      18.13465019       9.19555611      -0.04724117      -0.45257870       0.54675509      -0.06203008      -0.15178912       0.17953712
C        9.80248468      14.76541001      10.04165496      -0.47589014       0.67276565      -0.30410009      -0.96681670       0.47711656       0.74998866
H       10.87596084      14.58023237      10.05922055      -0.00631329      -0.69851117       0.57112462       0.10839812       0.00342182       0.21341824
H        9.16839960      13.99351652       9.57817554       0.55845250      -0.10445308      -0.03058200       0.18600102       0.00670645      -0.08453940
H        9.32857041      15.01290464      10.99061053       0.30693226      -0.05693031       0.44268577       0.08196833       0.23023154      -0.28707108
H       10.48716892      15.97867586       8.53775536      -0.00706276      -0.01478081      -0.29567832       0.05736458       0.13513814      -0.09470471
H        8.85158010      15.91461938       8.55508237       0.50056382       0.60323124       0.69476163      -0.08484224       0.04348736       0.19433487
N       16.41006041      23.15784797       4.23357818      -0.56690513      -1.74565705       0.40114083      -0.46390025      -0.89650175       0.15731791
C       16.33095655      21.96305850       3.23956333       1.54770768       0.93173081      -0.16948843       1.42142646      -0.15046680      -0.41451480
H       15.90695732      22.33697714       2.30450279      -1.03077330      -0.03814189       0.26288382       0.22381144      -0.13662789      -0.03878185
H       15.90240763      21.08591865       3.72225437      -0.46711779       0.06350558      -0.03342330      -0.12316002      -0.09636612       0.12768095
H       17.32043124      21.68027441       2.84238991       0.30233791       0.16841861       0.72026640       0.06049114      -0.26664626      -0.02756874
C       16.50478104      24.46052727       3.62290352      -0.42879665       0.91070246      -0.25929522      -0.29015503      -0.72421924      -0.29198559
H       16.56642842      25.29572448       4.30128810       0.55776713       0.05710009       1.08752166       0.08071875       0.08601238      -0.10095771
H       15.56479036      24.72297947       3.16358010      -0.46613809      -0.40350954      -0.96914902       0.09442935       0.17567303      -0.35968415
H       17.34625250      24.48137008       2.97288890       0.67620242       0.01588001      -0.88554633      -0.01752713      -0.13784805      -0.14977887
H       17.12935694      23.03139863       5.00500410      -0.31597959      -0.08943504      -0.56249881      -0.06362597      -0.02659337      -0.24362125
H       15.47871855      23.13481548       4.69493226       0.14425173      -0.07479094       0.54018188       0.25679463       0.00257223      -0.07277552
Pb       6.59202941      19.61051056       6.32993139       0.16887304      -0.09399940       0.25942921       7.55180112       0.70175505       3.31563408
Pb      13.26075045      19.02971107       6.85944232      -0.07879653       0.07050581      -0.34526068      -0.04782306       1.26662372       1.33371575
Pb       6.54136652      19.47185247       0.15960752      -0.07895303       0.34945950      -0.20408563       5.73247138      -0.40304154       0.37417111
Pb      13.01616887      19.20597405       0.46837395      -0.00769275       0.30468646      -0.25945948       0.26525003      -0.72738975      -0.71583738
I        9.72004457      20.34218532       6.76302008       0.11508387      -0.06700539      -0.01742701       1.43051481      -0.69595449       0.18972533
I       16.38155852      18.47301386       6.27122902      -0.23550129       0.14332368       0.03567414       0.06365058       0.03242993      -0.41402447
I       12.36383996      16.00712927       5.96433474      -0.02021070       0.20495031       0.21205083       1.08294158       0.67576129       0.74626008
I       13.92667779      22.78940379       6.89237433      -0.13423017      -0.09442293       0.01179578       1.11551298      -0.08325751       1.55696252
I       16.32255139      18.87396716       0.44593289      -0.07712525       0.02615594      -0.00796020      -2.50221974       1.47821312       1.54485720
I        9.34479662      20.07391703      13.77115273       0.30146663      -0.09548856      -0.19274285      -1.42636429      -2.51627767      -0.13691416
I       12.99155037      22.58768268      12.88275338      -0.01068739      -0.15413087      -0.17457607       1.25235505      -0.97161120      -2.47608264
I       12.35997748      15.99171418       1.01941740      -0.29026207       0.24367292      -0.20545965      -1.59346004      -4.09547006       1.88899413
I       19.23689764      19.84017406       9.83570592      -0.05416965       0.11009330       0.12865953      -1.50766993       0.16440627      -0.48262413
I        6.95428173      19.87476463       3.19650424       0.06936778      -0.04667534       0.05355603       0.05658299      -1.47807985      -2.19515160
I       12.25298478      19.33301531       3.53602308       0.12379851       0.08389211       0.08637483       2.25641450      -0.10522452      -0.39272305
I       13.32830374      19.71460699       9.89566843      -0.08857329       0.01925804       0.05882780      -0.82173254      -0.40250141      -0.84821737
Cs      16.41576715      16.00403506      16.01884094      -0.28349636       0.21664714       0.03862812       0.31456057       0.19467070       0.73860615
Cs      10.26449059      22.29156516      22.93481787       0.07728513       0.08162053      -0.10357585       2.58762048       2.90883169      -3.63789409
N       10.53200717      16.04266615      23.75904777       1.20315325      -0.49482461       0.51936698       0.09038726      -0.04033651      -0.15493136
C        9.97012302      17.38568886      23.37981271      -0.23651163       0.72700019       0.07773481      -0.13427696      -0.21788089      -1.09022014
H        8.89381034      17.49306601      23.76280513       1.40820076      -0.22269924      -0.49480000      -0.02123230       0.40793247       0.00913854
H       10.02838996      17.41336689      22.26441671      -0.36002913       0.21610050       0.59193741      -0.30000932       0.10699719      -0.12033891
H       10.61806735      18.22502515      23.79285792      -0.61281145      -0.93033595      -0.36728804       0.13718966      -0.04448266       0.31730883
C        9.49924086      14.97214716      23.61330675      -0.80988725       0.38875174       0.28859771      -0.45610083       0.09334153      -0.47466638
H        9.19588815      14.97876059      22.56697281       0.14810101      -0.30177122      -0.31172179       0.04997394       0.08144858      -0.07017666
H        8.61193334      15.42179529      24.13842983       0.55647850      -1.07486851       0.05852676       0.04008267      -0.01713177       0.15314499
H        9.84832619      13.94571087      23.93978025      -0.37833773       1.20316761      -0.14494059       0.01057152       0.21167441       0.21433408
H       10.92256429      16.01869659      24.74558703      -0.36108706       0.24570642      -0.69912249      -0.45168538       0.01690189      -0.15302537
H       11.35856057      15.80928776      23.12035839      -0.61307892       0.30602500       0.43016081      -0.25594711      -0.20864758       0.10951996
N       15.90966660      23.38685060      16.18291472       1.91535158      -0.14920556      -0.48688053      -0.11943079       0.43184336      -0.36222638
C       15.54232244      22.12111270      15.49397377      -1.37906521       0.51963004       0.80109388       1.12038680      -0.52029010       0.30625160
H       16.11248611      21.26313421      15.83660170       0.26298283      -0.00948930       0.34842986      -0.21146128      -0.06148323       0.11398705
H       15.70166356      22.28035197      14.46140528       0.23851549      -0.00480525      -1.46955542       0.26610792      -0.05022284       0.14510499
H       14.47017869      22.00722992      15.67366686      -0.10778925      -0.46271909       0.05898896       0.06253414       0.04657041       0.07202522
C       15.94765187      23.20154908      17.64698716       0.76998850      -0.48211456       1.13869853      -1.30855362      -0.76127338      -1.04638788
H       14.96545527      22.82440293      17.97306074       0.15350879      -0.03578250      -0.06019338      -0.03209394       0.18025957      -0.23469637
H       16.23361708      24.06076686      18.28307356      -0.36629027       0.34954135      -0.78309939      -0.11178163      -0.00015883      -0.24626755
H       16.75922132      22.48228005      17.93191705      -0.64275017       0.00663997      -0.49894013      -0.19321913       0.12782370       0.08652409
H       15.32368196      24.20916959      15.90096255      -0.30352949      -0.20824813       0.13025830       0.01137809      -0.03971480      -0.26922131
H       16.85923983      23.56363888      15.74571796      -0.17391931       0.31865133       0.75538912       0.21362044      -0.19138791       0.06886536
Pb       6.44135904      19.18472444      19.86461864      -0.27502517       0.20752460      -0.26247931       2.91470922      -1.60539055      -4.17901078
Pb      12.95219917      19.33039758      19.85147881      -0.22285694      -0.04072475      -0.00243565       3.94806782       4.80053546      -0.67031187
Pb       6.28267116      19.20435351      13.32254399      -0.06987745       0.21515018       0.05430716       0.21206568       3.86665082       1.97759986
Pb      12.55895971      19.51483208      13.03725203       0.04553778      -0.23647768       0.30504022      -1.48486427      -2.71874707      -0.79361434
I        9.39610310      19.56200566      19.28001215       0.41425536       0.00006931       0.04297171      -0.47571089       0.59582881       0.08327671
I       15.90500347      18.89995510      19.69573975       0.10015818      -0.08033545       0.10414991      -0.42290267       0.09408457      -2.49099121
I       12.11845590      15.86979972      20.51850519       0.24239094       0.38095629      -0.13265634      -0.24721000      -2.90135623      -2.91070923
I       13.15795329      22.52546689      20.16447778      -0.09483062      -0.17844677       0.12232503       3.18727355       0.54354534       1.66530659
I       16.24793495      18.88479477      13.49980975      -0.06526934       0.07099552      -0.22461153      -0.63790163       0.64542871      -0.81687558
I        9.81232207      20.39390915      25.97065715      -0.10628904      -0.13699131       0.29166028       5.89700403      -0.79688120      -3.01832192
I       13.43543579      22.48529261      26.25995092       0.07673244       0.07160315      -0.03410191      -6.17201015       1.49232062      -1.81649067
I       12.68572175      16.06267126      13.93645375      -0.06514305       0.11825493      -0.17317780      -5.94399803       0.18291786      -0.26277094
I       19.23196057      19.58111818      23.00456149       0.00104248       0.01895401       0.24456074      -2.67738817      -2.01025899       1.14078187
I        6.26962406      18.92724959      16.41826929       0.03484018       0.02141661      -0.01345262       1.86040742      -2.86229775       2.06745536
I       12.74306421      19.15540874      16.54909342      -0.06866558       0.08645724       0.15646963      -3.04253946       3.15627821       0.32983888
I       13.28518108      19.17746270      23.49370750       0.13674581       0.06335871      -0.17841094       1.36651614       0.46078605       3.47374431
Cs      10.01264144      22.49068205       3.40804519       0.00253949       0.05900660      -0.07951198      -4.24072700       1.95800487      -2.48634534
N        4.12730553       3.31986845      10.09504923      -0.11675519       0.19644740       0.75373632      -1.27712400       0.31733667      -0.35442184
C        2.78279061       2.99753682       9.44270355       1.32917161      -0.57235052      -0.32289338      -0.73370618      -0.29069985       0.01320789
H        3.06955445       2.48252835       8.51948228      -0.35289366      -0.09652711      -0.09721173       0.04163239       0.28450324       0.14528135
H        2.33577170       3.95281557       9.20569139      -0.57321533       0.21847091       0.09851320       0.13598607       0.03723288      -0.06635043
H        2.20289998       2.31412992      10.10509717       0.26636702       0.56231247      -0.30604909      -0.03140958      -0.02626987      -0.27887219
C        5.17489609       2.27560320      10.05557341       0.24441479      -0.00939882      -0.51414193      -0.14774290      -0.09389475      -0.37470949
H        6.13688433       2.66972273      10.35312270       0.18030162       0.55735101       0.55386640       0.25284227       0.06504279       0.03176937
H        5.34820910       2.06439378       9.00877846      -0.28513814      -0.67004001      -0.46284179      -0.03860889      -0.02337268       0.30161823
H        4.95021027       1.41886704      10.69575138      -0.35168371      -0.03755438      -0.19637641       0.38219427      -0.08245010       0.27409762
H        3.86471536       3.42703141      11.07903690       0.31883693       0.60010864       0.28427199       0.19807951       0.04578087       0.09548332
H        4.59968240       4.20409455       9.75593168      -0.75610465      -0.35795425       0.22205554      -0.14900149      -0.12218904       0.05463283
N        4.17338202      23.07328780       9.87491294       1.54289890       1.37410251       1.60947344      -0.52888231       0.48148749       0.04297639
C        3.56629641      21.82456706       9.44032961       0.82354093      -1.03780143      -2.28603346      -0.21350627       0.20855277       0.68874203
H        3.67067594      21.83067797       8.31137302      -0.45174761      -0.03120478       0.79263507       0.25031621       0.21945321      -0.05629072
H        2.51507804      21.73979189       9.69228277      -0.19062149       0.07486195       0.53748703      -0.21400742      -0.03014774       0.02856469
H        4.19736603      20.94806874       9.71255295      -0.43784188       0.47932504       0.41379106       0.16581275       0.08103528       0.11659216
C        3.28133337      24.27702178       9.91021054      -0.32612513      -0.29323088      -0.86624626       0.79280145      -0.16793538       0.57950053
H        2.33878598      23.98632509      10.37365751       0.02215554       0.07735146       0.68826078       0.16568676       0.06676269      -0.13633104
H        2.99198253      24.48778031       8.86271777       0.41536269       0.34851692       0.23736940      -0.20950711      -0.00632944       0.02467918
H        3.83483401      25.08714367      10.41905291      -0.51948225      -0.20636821      -0.29295651      -0.12116963      -0.05693623      -0.00105059
H        4.96837601      23.31050854       9.23214682      -0.22789436      -0.28777471       0.18673611      -0.10424194      -0.01985134      -0.02662671
H        4.63678127      23.03639136      10.85075506      -0.53936582      -0.53051197      -0.81081719       0.07533355       0.23335700      -0.01426139
Cs       9.86713107       3.45869761       3.36118927      -0.05104494      -0.01535429      -0.09861698      -0.53139479       2.11116567      -3.67741999
Pb       0.08714306      -0.16261688       6.67593206      -0.16286466       0.38218262       0.06931959      -1.96069477       2.04800842      -1.26627246
Pb       6.91330456      -0.16673405       6.74349751      -0.10039503      -0.00114004      -0.05476335      -1.68784610      -5.85667910      -0.91903540
Pb      -0.41369129      -0.17242318       0.50782051       0.14471511       0.11076127      -0.33263760       0.70945943       0.08760193      -0.26069735
Pb       6.46692997      -0.09994724       0.57868386       0.08656464      -0.16382126      -0.09248342      -0.25101373      -0.22425357       2.51487191
I        3.54903911       0.16421766       6.50381487       0.03935643       0.18447391      -0.16989717       2.49438863       4.48286775      -0.89757778
I       10.10353150      24.91435500       6.77361175      -0.44459765      -0.07093959      -0.02782100      -2.91978407       2.57911793      -0.31633829
I        6.02255133      22.76742073       6.61231001       0.21379380       0.12668597       0.01623707       0.39537694      -5.77170447       0.60509193
I        7.47019311       3.26610797       6.63407478      -0.00229832      -0.03874414      -0.01198149      -1.64219154       1.80922944      -3.11423936
I        9.65728150      24.88268376       0.02633539       0.09829202       0.05757042      -0.04463467      -3.31229872       2.61968215      -0.90133488
I        3.49898614       0.49459299      13.25006388      -0.09046314       0.05167818      -0.01877835       2.05636641       2.11515763       2.26012498
I        6.81457533       3.38706413      14.29291426       0.02040094      -0.01224196      -0.13269932      -2.54861799      -0.68819994       0.81034910
I        5.62603950      22.93395427       0.57661772       0.19572443       0.04903048       0.08617266      -0.68662371       0.86311161       3.46550719
I       12.86976957       0.66323116      10.08306001       0.04986955      -0.36261513      -0.10853493       1.86671303      -2.01825728       0.97099944
I        0.01019947      25.48545979       3.54119182      -0.01597725       0.02095529       0.26724179       1.68621142       2.28017160      -1.39265406
I        7.72505271      -0.21570136       3.33710560      -0.17103160       0.08744514       0.23281120       1.78631272      -0.62150210      -1.23936162