800
Lattice="26.63701847784625 -0.0348448626192094 -0.0693957341098052 0.03348634781773359 26.45385678298886 -0.11197066976316071 0.013847370129727369 -0.10149824820922831 26.651762847228706" Properties=species:S:1:pos:R:3:forces:R:3:momenta:R:3 energy=-3427.24609375 stress="0.00039254949660971755 -0.0006207943079061806 0.00010216621012659742 -0.0006207943079061806 0.0009593822178430855 -0.000370287278201431 0.00010216621012659742 -0.000370287278201431 0.0010692770592868328" pbc="T T T"
N        9.39987305       8.90827644       2.87629286      -0.00124836      -1.32504163      -0.69931468       0.07984629       0.21652415       0.96780938
C       10.89504771       9.11331098       3.03391019      -0.10322523       0.79139221      -0.32092194       0.45164521      -0.34350186      -1.32909383
H       11.14400164      10.09336832       2.63870620      -0.20729250       0.31602535      -0.67992553      -0.21910065       0.02962262       0.02560095
H       11.44782696       8.36991251       2.43734789      -0.14849434       0.00503466       0.44039981       0.27193534       0.20788896      -0.15567281
H       11.23870886       9.25977872       4.06987480      -0.42929907      -0.80127466       0.15675259       0.20914386      -0.17611666       0.06902229
C        8.54921801      10.07726187       2.58236546       0.05589145       0.90167031       1.82268571       0.49982958      -0.65783026       0.72607504
H        9.05388395      10.57432639       1.77556024       0.23833593       0.82242307      -0.34002643       0.00544358       0.10148182       0.29859741
H        8.45639930      10.66653276       3.54031973       0.31793202      -0.12919577      -0.95981065      -0.18650875       0.17264886       0.18493787
H        7.53671911       9.84630984       2.25653130      -0.10108422      -0.58172298      -0.08519729       0.30600108      -0.21168271      -0.03404144
H        9.03547769       8.33234281       3.63786261      -0.09586467       0.01031554       0.67650940      -0.28764760       0.09627195       0.26487928
H        9.24065065       8.28056437       2.05627323       0.48821218      -0.07420343      -0.03274715      -0.10580627      -0.03166826      -0.16332354
N        2.86936847      16.09145358       9.49340809      -0.21367851       0.64569309      -0.14388000       0.47582334      -0.13158583      -1.22246811
C        4.33449908      16.13762615       9.56342707       0.92422646      -0.13168171      -0.46424096      -0.17409768       0.01230800       0.00461831
H        4.72831928      15.09411354       9.84184645      -0.43121594       1.37225834      -0.40112172      -0.09612000       0.06727099       0.02574051
H        4.60947958      16.90135381      10.31205625       0.03237586      -0.29127742      -0.11336503       0.07318049      -0.06000111       0.05376314
H        4.68324648      16.49985481       8.54509656      -0.02400711      -0.68341588       1.07653146       0.11242480       0.10590862       0.11764483
C        2.18555408      15.98203717      10.77529828       0.43353307      -1.67467237       0.51692015       0.62064797       0.51871247      -0.05249836
H        1.10896641      15.98673346      10.60162139      -0.12876179      -0.35100378       0.11134012      -0.00668612       0.16335033      -0.06400222
H        2.44678724      16.78042748      11.42689296       0.33999442       1.11382027       0.36405598      -0.10706092       0.10095036      -0.06600896
H        2.62091670      15.07014799      11.24641678      -0.77934765       0.21101179      -0.10211921       0.11658955      -0.11747495       0.00183647
H        2.58401978      15.31247151       8.87050482      -0.10498334      -0.17508497      -0.39968553       0.08197718       0.03273055       0.02827230
H        2.55050797      16.97155069       9.08191110      -0.10157151       0.25059396      -0.60999353       0.08854286       0.01882484      -0.05454141
N        3.77838446      10.24250373      10.43923727      -0.43349902      -1.30858300       0.12941941      -0.12960492      -0.66545376       0.41373967
C        3.87443130       8.93303879       9.67502887       0.04740819      -0.18606126       0.77409885      -0.59905899       0.33912349      -0.21321425
H        4.76201917       8.39308423      10.06231269      -0.21475674       0.19786765      -0.22195636      -0.03713623       0.05046124      -0.00794282
H        4.01061101       9.20938926       8.63509985      -0.00394342      -0.12674519      -0.40209821       0.06783454       0.21007891      -0.00125794
H        2.98473976       8.28583632       9.82436196       0.15961331       0.56360427      -0.03130495       0.09049296      -0.15914424      -0.15690832
C        2.58261729      11.02375423      10.08747255      -1.59816112      -1.17139598       0.21538444      -1.03486635       0.19911176       0.46145335
H        1.71917244      10.31708165      10.18372011       0.32065069       0.51783683       0.52601002       0.40482766       0.01259140      -0.07128652
H        2.50958258      11.24208515       9.04692520       0.69490492       0.58945170      -1.06693688       0.08911364      -0.04770109       0.01197365
H        2.47207415      11.89973620      10.71659072       0.04694259       0.17424514       0.20861032      -0.04806724      -0.07074743       0.15572208
H        4.63825256      10.72863175      10.19897236       0.55898604       0.75202428       0.27608954      -0.04573236      -0.18051395       0.17997664
H        3.72101580      10.04984954      11.46274627       0.41080169       0.15049307      -0.38044293      -0.12395611       0.16722772      -0.07178027
Cs       9.61146054      16.10938757       3.76642669       0.13997141       0.10830400      -0.00670462      -1.31960094      -1.09693148       1.15200585
Pb      -0.57973513      13.39696354       6.81421408       0.60800827      -0.08854383       0.34267104      -1.56927557      -1.06690872       0.00950510
Pb       7.01331405      12.87969253       6.57274969      -0.38888969       0.05521819      -0.02300471      -0.08400514       3.32719589      -1.77322215
Pb      -0.11300450      12.77533544       0.45541048      -0.05763546       0.12635736      -0.20053674      -2.30633401      -0.60967064      -3.10083983
Pb       6.62784010      12.81024286       0.48513923      -0.16253098       0.32446091      -0.34219846       2.33952954       1.52335818      -1.18763306
I        2.67454802      13.83063852       6.79738722      -0.00157185       0.00760507      -0.07611371       3.16530560      -0.96139804      -0.02581645
I        9.89888788      12.78207758       6.27955620       0.41747179      -0.07677622       0.07797468       0.00947878       0.03402432       0.63279065
I        7.07185035       9.63394097       6.56433611      -0.05548401      -0.09924507       0.00562707      -1.25248874       0.47781950      -2.62677207
I        7.16508625      16.09688702       6.83799375      -0.00758074       0.17773400      -0.16327993      -2.79544555       2.86470751       1.45876533
I        9.90316933      13.79223122       0.09980417       0.13633699      -0.16126259      -0.03550052      -0.34065463      -1.16784927      -2.42045512
I        3.20112369      13.05172657      13.81699083       0.00082904      -0.08129483      -0.16519508       1.69103339      -0.60703411      -0.53220189
I        6.70236799      16.41904995      13.15311097       0.15356162       0.23863330      -0.08184865      -0.29747155      -1.35937452       0.61791413
I        6.31610170       9.68496810      -0.36239262      -0.02653269      -0.17750070       0.10528804       0.89754599      -1.86321196       0.12143745
I       13.70008002      12.80839007      10.16937823      -0.02344175      -0.02689903      -0.23025081      -0.80656708      -3.44717722      -0.78945177
I       -0.62366630      12.90674591       3.39902651       0.05127852      -0.11327860       0.07744566       3.36689788      -2.70984509       1.54572254
I        7.07566971      13.48856890       3.36886363      -0.14144689      -0.01801381       0.13223461       1.64642939      -0.03052080       1.00532777
I        6.35518001      13.07040319       9.61018908       0.07662578      -0.35795928       0.32054268      -1.88088828       3.10351118       3.77086992
N        9.51131530       9.23596012      15.43427628      -1.49869690      -0.00013456       3.64508598      -0.09709626      -1.25514495      -1.06728360
C        8.91501442       9.45670639      16.88086290       0.50693848      -1.50102428      -0.35094856       0.14420203      -1.19967951      -0.35390659
H        8.35819207      10.35306541      16.97709343      -1.14912469       0.99819616      -0.69745039       0.18126560       0.11560792      -0.13398166
H        9.70421663       9.67308098      17.57277882       1.08049938      -0.52064719       0.29244988       0.03200062       0.00250167      -0.35104066
H        8.30155798       8.55860325      17.16511615       0.54974724       0.69183595      -0.16305017       0.15970160       0.22583734      -0.00233079
C       10.95741515       9.30888876      15.33794383       0.62846529      -1.10789152      -2.12274821      -0.33357095       0.60360606      -0.03583849
H       11.18822076      10.25150319      15.77185923       0.74702308       1.05268571       0.06887558      -0.16692163       0.02459533       0.09141648
H       11.18437118       9.18254506      14.20392467       0.11050873       0.57337619       1.68559007       0.07529978       0.14410899       0.00697540
H       11.50426888       8.51436225      15.87144957      -0.54256697       0.02720499       0.07697431      -0.08487046      -0.01214691       0.00434621
H        9.09600180      10.01565880      14.97391522      -0.40329667       0.70200799      -1.41843908       0.15564060      -0.17876976      -0.02959279
H        9.08520643       8.35266041      15.13506935       0.10797949      -0.40840285      -0.74029503      -0.00692413       0.14233671      -0.06731501
N        2.48294126      14.94338563      23.24273065      -0.71685750      -0.23647205       2.30820428       0.19360150       0.01145814       0.00147598
C        3.68173696      15.05171754      24.15053423       0.33227004      -3.66034390      -2.09210689      -0.00056511       0.62066937       0.43089822
H        4.48016055      15.37014730      23.50845503       0.79150026       0.24121235      -0.38224931      -0.12061347      -0.20604278      -0.16735049
H        3.92950543      14.00608684      24.55089946      -0.30518461       1.35842085      -0.31891971       0.17282225      -0.05856652       0.08547109
H        3.54645657      15.74367716      24.88779782      -0.78680923       1.89895348       2.24193854      -0.12759928       0.09575825       0.07212879
C        1.98262655      16.25879838      22.82595593      -0.22811142       0.33289927      -0.89977212      -0.31063034      -0.24612026      -0.85755565
H        1.00515623      16.16080780      22.30480033       0.63083826       0.03758605       0.02075351       0.27475720       0.24017212      -0.16590256
H        2.77346035      16.73507743      22.22858695      -0.26055809      -0.07185760      -0.28348578      -0.14059647      -0.09237631      -0.40907389
H        1.83831518      16.89440370      23.68490382      -0.13294318       0.15121579       0.73713373      -0.00590631      -0.11515207       0.17361850
H        1.70944821      14.41547109      23.74902883       0.30310753       0.38467190      -0.24691607      -0.25813313      -0.08822619      -0.13449274
H        2.69146330      14.33125536      22.47046212       0.45844553      -0.46488470      -1.14644416      -0.03691071      -0.00871888       0.02024297
N        3.21973064      10.31452179      23.70814111       0.69976609       0.11528512       1.36420315      -0.39293701      -0.16428976       0.46238743
C        2.60503143      10.03135560      25.05131577      -0.67268031       0.91506893       0.39481109       0.33690992       0.46334211       0.22499946
H        2.47377157      10.87892530      25.77332006       0.42331271      -0.24187173      -0.89199470      -0.26822619       0.10105895       0.12744794
H        3.08948561       9.21327949      25.54343126       0.92456313      -0.45346789       0.24679330       0.17750428       0.00389129      -0.10960352
H        1.63934809       9.64098772      24.80776960      -1.10962898      -0.20056802      -0.02926581       0.23040221      -0.04130263      -0.09760761
C        3.56729907       8.98781205      23.05881611      -0.30632740       0.24601192      -0.06294644      -0.17512786       0.75010344       0.28358615
H        4.61983804       8.67902015      23.21227685      -0.20556834       0.53817842      -0.08868359       0.19038923      -0.31464713       0.21392588
H        3.30519664       9.13556196      21.98452364       0.21326478      -0.75173148       0.55110326       0.05428874      -0.11830667       0.20809690
H        2.96271319       8.25127855      23.63599433       0.12244229       0.18953617      -0.99373410      -0.23521899       0.06915760      -0.27549921
H        4.00724383      10.97769430      23.83537434       0.28550838      -0.40552593      -0.23568116       0.17128112       0.08559834      -0.01590345
H        2.54115496      10.82550160      23.14290405      -0.36712761       0.17403156      -0.37965620       0.13164620      -0.02580264      -0.29296117
N       11.03300415      15.80220747      17.11871410      -0.45125338      -0.26840352       0.40224605       0.38262767      -0.04188602      -0.81994684
C        9.68632772      15.15830023      17.08721869       1.04127790      -1.12738689      -0.32374416      -0.53718125       0.63868622       0.80604924
H        8.97805065      15.64587386      17.76805556       0.08126507       0.29816963      -0.35764294       0.07450458      -0.03582602       0.05616300
H        9.82897015      14.11484694      17.45028271      -0.18272585       0.38448371      -0.20857469      -0.06688779       0.42360851       0.16066230
H        9.44581797      15.14818889      16.01103249      -0.53285309       0.01650359       0.42730204       0.29902984       0.01730774       0.01628761
C       11.05893034      17.00497557      16.30170901      -1.04349102       0.39368372      -0.22474565       0.06425287       0.96883357      -0.27835457
H       10.85245853      16.79341416      15.23467774       0.26919091      -0.03525783       0.39187006       0.05444206      -0.10205027       0.20019034
H       11.99070234      17.45686455      16.51811182       1.33751424       0.65821962      -0.37575023      -0.02381641       0.02168002       0.09325603
H       10.31749897      17.71957368      16.68950299      -0.18683055      -0.23880731      -0.05967487      -0.40099863       0.12395136       0.04780704
H       11.85142258      15.17657146      16.92062604      -0.38497268      -0.38112608      -0.61074067      -0.31198476       0.20327301      -0.00698425
H       11.31360570      16.05683996      18.08603944      -0.25185526       0.24193416       0.66377085      -0.21066716      -0.01560104       0.00865245
Pb      -0.20141125      12.94678301      20.05203560       0.10680404      -0.02899853      -0.36918870       0.31038995      -0.00890537      -3.79587794
Pb       6.83439026      12.56315795      20.00519499      -0.06834961       0.09568638       0.22256814      -0.21271030      -3.38686170       3.27755315
Pb      -0.07348896      13.17538820      13.35576044       0.29427846       0.02187356       0.03150853      -0.77051064       0.70432505       0.26911182
Pb       6.88797276      13.36197015      13.30079848      -0.23348565      -0.26836688      -0.26238190       1.80451551       0.29207533       0.69666565
I        3.58157330      12.63739722      20.25872601      -0.04554618       0.01450558      -0.01062357       0.71089874      -2.13116559      -2.55779431
I       10.28487357      12.55287887      19.59569241      -0.17553976       0.00103911       0.07271721      -2.26238012       0.31610120      -1.60789990
I        6.18525944       9.39130679      19.95049917       0.13455144      -0.03284592      -0.00631864      -0.34761799       1.03236229       2.63607050
I        6.73350768      15.94741620      19.74635339      -0.01682541       0.03336049      -0.03913430      -1.66905502      -0.66384573      -2.13206349
I        9.86127683      12.85142412      13.34491699       0.17158391      -0.04378802       0.10189754      -3.11678606       2.09786079      -0.10158282
I        3.50979376      12.97622158      27.84374238      -0.01264722      -0.14342406      -0.07865095       0.01996777       0.10677292      -0.41425094
I        6.57116803      16.02690042      26.72539082       0.01900405       0.14141259       0.07118003      -0.61775088      -0.75969040      -0.29250516
I        6.46861653       9.57650163      13.38250032      -0.21124236      -0.01355184      -0.03589804       0.15200079       1.38439464       1.33298075
I       13.17623779      12.95555490      23.17034047      -0.07235192      -0.12219318       0.21490544      -0.55965434       0.19619439      -0.38960598
I       -0.38440157      13.08706653      16.70120037       0.20819775       0.08080321      -0.30404152       0.47320242       1.63770204       1.24273080
I        6.10619781      13.08438536      16.13137915       0.10276638      -0.12450539       0.48183737      -1.21231198      -0.37436173      -1.38806895
I        6.98694959      12.49474598      23.20823627      -0.07862879      -0.01426057      -0.22566689      -0.19991976      -2.66142125      -1.90262043
N       16.57634930      16.47915013       2.24033730      -0.95312916       1.01857377      -0.98986014      -1.24877675      -0.49625784       1.19039425
C       17.88447740      15.84661374       2.56295466      -0.05780065       1.19961423      -1.65129585      -0.22366782       0.95446230      -0.06647157
H       18.45446977      16.59607513       3.08106308       0.41688527       0.26884044       0.66857145      -0.18272113       0.17656400      -0.22159083
H       18.44011552      15.60137275       1.63223545      -0.40607169      -0.03649974       0.35841048      -0.34600619       0.18447462       0.08024481
H       17.64439723      14.99887803       3.13625052       0.05806049      -1.29717653       0.95245591       0.31488862      -0.03410836      -0.00980514
C       15.69382446      16.72114488       3.42218304      -0.37774216      -1.78836256      -0.34436654      -0.53815666       0.51020970      -0.76209068
H       15.57933633      15.73126583       3.94095832       0.27060286       0.93374911       0.03565612       0.16935915      -0.08272909       0.00698100
H       14.70107106      17.03410306       3.08967153      -0.04977281       0.09775789      -0.22383156      -0.14611178       0.34846838      -0.06989483
H       16.12102887      17.51373047       3.99600875       0.45186600       0.38502006       0.82629521      -0.01033381      -0.04341902      -0.06303587
H       16.03983736      15.90826250       1.53303478       0.48079532       0.20347905       0.32537117       0.38227135      -0.01451084      -0.14374752
H       16.67026305      17.45232467       1.77684145       0.26753473      -0.84786731       0.04594219       0.15528720      -0.00876340       0.14409053
N       10.75456220      22.64537398      10.06304336      -0.50993949       1.29907386      -1.25931332       0.36495900       0.09029095      -0.23171770
C        9.52736491      23.26815598      10.64594522       0.61680327      -0.53373117       0.56615507       0.75569657      -0.27744290      -0.03910292
H        9.24959205      22.79679265      11.58347513       0.33059648       0.08191480       0.49046150       0.08814955      -0.12520742      -0.05282572
H        8.67448349      23.16354130      10.02790765      -0.76421740      -0.38184542      -1.16922731       0.13214463      -0.21851812       0.18530788
H        9.78838597      24.29729016      10.68368159      -0.15242396       1.20129174       0.51529786      -0.00633538       0.10600869       0.06299543
C       10.65845625      22.66786997       8.58165085      -0.31683935       0.13006538      -0.40796221       0.10802207       0.17440242       1.08790555
H       11.55963278      22.22599761       8.17547241       0.63007963       0.39774333      -0.10853418       0.46688693      -0.16135443      -0.19271594
H       10.42871296      23.71054744       8.23694415       0.35014812      -0.81687553       0.23973383       0.22385525       0.15041885      -0.25153352
H        9.91450982      21.95763693       8.22493412      -0.67639145       0.14359489       0.27956220       0.22971923      -0.31219280       0.00293607
H       10.87114608      21.68765936      10.31459398       0.37148407      -1.23045535       0.88100880       0.00531993      -0.13342196      -0.00389400
H       11.58105818      23.23210282      10.31105789      -0.09846985      -0.50571641       0.25052538       0.10136366      -0.09758219       0.03483620
N        9.96538985      15.98192460      10.71443566       0.76120681      -2.39470530       0.90913711      -0.06631375       0.96081051      -0.03266977
C        9.96177508      14.65429929       9.97721968      -0.20590238      -0.04527527      -1.00258226      -0.21250151      -1.13749732      -0.40962782
H       10.72360819      14.71670670       9.17250001      -0.19987516       0.04502667       0.30489251      -0.02258502      -0.08814980       0.20518529
H        8.95130209      14.51607443       9.48460710       0.85058471       0.11680688       0.60089318      -0.18783890       0.20166052       0.01626173
H       10.22660992      13.79962680      10.64282782      -0.33109626       0.64257120      -0.14186403       0.06197721       0.02619420       0.08772882
C        9.82112494      17.13555836       9.89880730      -0.34189462       0.39215649      -1.67102866       0.64325205      -0.17605796      -0.48436000
H        8.79376908      17.28681196       9.60548075      -0.60623359       0.02413651      -0.08664143      -0.04493499      -0.17628926       0.12625349
H       10.38630659      16.93017866       8.99843167       0.37456980       0.34349589      -0.41046914       0.15432802       0.22780523       0.06262969
H       10.17254249      17.99894533      10.40946132       0.40035389       0.92713763       0.44851840      -0.05584555       0.08487238       0.19927701
H       10.90674190      16.05840201      11.21324673      -0.76894276      -0.16857984       0.26360170       0.17010875      -0.09447553      -0.17880734
H        9.17236813      15.91187916      11.35221648       0.09958095       0.21120817       0.83238133       0.13149205       0.00283301      -0.09155509
N       16.35956494      22.90448354       3.90884096       1.08979263       0.82750972      -2.19779439      -0.32414309      -0.85003091       1.18672003
C       15.45241584      21.87117731       3.35669022      -0.06294536       1.36516633      -0.51209949       0.21083916       0.80122142       0.28616576
H       15.81668427      20.90666999       3.59024065       0.70740449      -1.24158741       0.22020283       0.01241381      -0.23316503      -0.32352377
H       15.46084943      22.05912358       2.26495822      -0.55112941      -0.35290539       0.38820694       0.02694654      -0.03414165      -0.15379852
H       14.53688234      22.01567798       3.90434076      -0.92597006      -0.02858965      -0.29997913       0.03503159      -0.23582726       0.10775990
C       17.76557103      22.71537569       3.34531049      -0.67057696       0.37028357      -1.21686545      -0.39413749       0.47819208       0.40308910
H       18.28125404      21.84669666       3.79890643      -0.40960127       0.22293187      -0.20251355       0.07132890       0.00256772       0.24416441
H       18.36192172      23.63988105       3.49269428      -0.33307450      -0.38122718       0.04634479       0.12552042       0.09704833      -0.15118260
H       17.56225649      22.59018265       2.20841943       0.71451690       0.01263318       1.67594262      -0.07801297       0.09417355       0.20751715
H       16.29924087      22.92139911       4.90232076       0.20773251       0.01289079       1.58296708      -0.03805126      -0.11048848       0.00163296
H       16.03965538      23.85190439       3.55825633       0.09793359      -0.67369233       0.50681688       0.01893469       0.06186224       0.13991564
Pb       6.63952473      19.77259311       6.50708515       0.00704999      -0.34963813       0.09211973      -6.01177680      -1.25166218      -3.66371520
Pb      13.19205868      19.70161504       6.54338893       0.07830854      -0.34986755       0.13690934      -0.84673262      -0.86405270      -0.11703611
Pb       6.71080188      19.61536763       0.14121622      -0.24671421      -0.03232737      -0.10284572      -0.18989354      -3.75098578      -2.42251096
Pb      12.98576522      19.30013389       0.47183687       0.18563681       0.11520972       0.06678506      -1.42137550      -1.17873603       2.15363512
I        9.74063365      19.57026553       6.18619166       0.00650078      -0.00388669       0.12366227      -3.14765412       2.64127400      -1.63267704
I       16.72409308      19.55738087       6.63050223      -0.12411253      -0.02154340      -0.07696514       2.07008800       2.25194336      -0.83835432
I       12.67495545      15.93410266       6.76705545       0.12833887       0.03106263      -0.08588275       0.61042545      -0.48996751      -0.67083658
I       13.45746206      22.76907807       6.39237290       0.19569314       0.13636283      -0.20556262      -5.18549458       2.92425157       1.03852574
I       16.23129984      19.44170407       0.37121740       0.17092891      -0.02203634      -0.01824417       0.12815620      -0.80536371      -1.36713222
I        9.94617546      19.96729975      13.27584862      -0.10598223      -0.11028487      -0.06489090      -0.19542676       0.85347730      -2.05576275
I       13.69411384      22.57083946      12.96372857       0.07303086       0.38877667       0.03428267      -0.90519334       1.99735777      -2.35228913
I       13.32178629      16.33331698       0.17011685       0.06931411      -0.09622990       0.08959120       1.28214048      -0.28779217       0.92323091
I       20.76575096      20.04080925       9.85412221       0.01274219       0.10076448      -0.04728258       1.90756094       4.60000370       3.33686632
I        6.37126986      20.05761318       3.24382112       0.02033612      -0.22139070       0.04291026       0.62304793       1.00603600       2.48539303
I       12.50667953      18.79608292       3.57056071       0.03063187       0.13643304      -0.20095043       0.33321062       0.41660773       3.80059824
I       13.48826170      19.66123104       9.91715375      -0.12260563      -0.02674453      -0.24387516      -0.00326179      -0.63693997       3.36340430
Cs      16.62114769      16.49235335      16.38414770      -0.00500615       0.01788247       0.08143581      -3.28358157      -0.03006106      -3.38854709
N       11.20619068      22.24281994      23.28475468      -0.63549241      -0.75076812       0.33438033      -1.00806803      -0.24058191       0.13879353
C       11.63235195      23.61999513      22.93324339       0.05578249       0.44149842       2.28175549      -0.06614091       0.42307490       0.05630959
H       11.17341781      24.02185969      22.04648496      -0.29091534      -0.26372009      -0.63196608       0.02409743       0.32828163       0.27849368
H       12.71394274      23.74457207      22.95371162       0.26471317      -0.27547494      -0.30192123      -0.19795536      -0.16918563       0.01425471
H       11.26413312      24.21154525      23.81788583       0.22721026      -0.05890068      -0.75765918      -0.08687404      -0.17262449      -0.46795714
C        9.73754573      22.18645883      23.47932583      -0.39544677       0.91542801      -0.51452970       0.03630587      -0.26068127       0.88887518
H        9.54550864      22.51082800      24.48437192      -0.51607867       0.17690306       0.63080129      -0.27351440       0.04952534       0.13464101
H        9.27413364      21.23587667      23.22930466       0.18644228      -0.41378829       0.19652654      -0.27793659       0.10278589       0.04065815
H        9.36664235      22.91566669      22.75283381      -0.42947631       0.03932263       0.19280432       0.10121656      -0.18643492       0.09072732
H       11.67735943      21.87683529      24.13187165       0.27672998       0.33937953      -0.12811446       0.10613916       0.02399735      -0.02367524
H       11.31637647      21.50634482      22.60340734       1.07668643      -0.27398769      -1.24169679       0.04355610      -0.05018487       0.17427306
N       10.35984942      16.71105044      22.65919825      -1.08100865       0.09946958       2.66932568      -0.00083092       0.36297195       0.37300970
C       11.26422731      17.03020537      23.86383041      -0.37083963       0.80827976      -2.85628896      -0.10463879      -0.39065562       0.82435127
H       10.71086578      16.80593311      24.72919830      -0.85374501       0.42033741       1.38809440      -0.09625866       0.18336607      -0.07680190
H       11.63254810      18.02714379      23.59207822      -0.21175043       0.14270932       0.97757861       0.07918189       0.14896216       0.05147680
H       12.09412676      16.39168900      23.82657891       1.26231644      -1.26405640      -0.21506745       0.26535458       0.16719937      -0.15764508
C        9.63858935      15.34872267      22.83797267       0.54633950       0.74459115       0.62998141      -0.08429449       0.85272249       0.30869078
H       10.33638234      14.49306841      22.61503864      -0.58141160       0.85675100       0.04994282       0.06489236      -0.16929278       0.12797435