440
Lattice="25.727446512053557 0.3075583346542152 0.11894820405715593 0.22311865435565914 25.53526927469087 0.11962720591011605 0.03911767329612022 0.07410439579025896 25.81629797813353" Properties=species:S:1:pos:R:3:forces:R:3:momenta:R:3 energy=-1532.4736328125 stress="0.00020652345847338438 3.178393671987578e-05 0.0004235696396790445 3.178393671987578e-05 0.0004041620122734457 0.00023421997320838273 0.0004235696396790445 0.00023421997320838273 0.0006489137304015457" pbc="T T T"
Cs       9.22155008       9.38054630       3.21508636       0.19080525       0.20502914      -0.03559642       3.06172379      -2.04579646       2.10966681
Cs       4.78404469      16.74439976       9.80791581      -0.39944732      -0.11568297       0.09984597      -0.17642283       1.47179059      -2.41475875
N        3.82852819      10.32437395       9.97825375       0.37154958       1.09627078      -0.86570500      -0.28930119      -0.70845846      -0.12213744
C        2.71942438      11.33503601       9.51899226       2.07477263      -1.65617743       0.07715227       0.46552321      -0.74285005       0.34655674
H        3.00965948      12.26680010      10.00149706      -0.39585422       0.20253919      -0.06082201       0.06489017      -0.23207204       0.25464409
H        1.80129244      10.86680954       9.82516464      -0.70343590       0.06303584       0.26257890      -0.08773581      -0.20605203      -0.08143735
H        2.83728682      11.33145965       8.44341230      -0.20940806       0.33296428      -0.41022844      -0.08911524       0.18828764      -0.05214098
C        3.77147333       8.90922461       9.52147705       0.60458199       0.37428392      -1.76687983       0.38392238       1.36124894      -0.61286132
H        2.85574403       8.47236460       9.81524821      -1.51850174      -0.34751819       0.16850342      -0.00085642       0.20351804       0.09161898
H        4.51724357       8.33698605      10.04181229       0.78153251      -0.19839873       0.28918769      -0.21355222      -0.09162626       0.19552401
H        3.95375585       8.78620210       8.38361205      -0.34520484       0.50189105       1.55742592      -0.30953961      -0.36507502      -0.15211462
H        3.83692153      10.38261347      10.99451084       0.11367249      -0.28535205       0.57507367      -0.26704181      -0.18876547      -0.01630291
H        4.78282598      10.73167894       9.68419292      -0.72684742      -0.25640893       0.23234887      -0.04976547       0.08231857      -0.08314490
Cs       9.70864561      15.80797525       3.89743988      -0.04735886       0.01363202      -0.13993296      -1.36478290      -3.42486138       1.58891028
Pb      -0.15910627      13.40739326       6.81252567       0.14158880      -0.03998910      -0.30211172       2.95050514       1.59070327       1.01779542
Pb       6.45618518      12.91643621       6.68464255      -0.05037388      -0.16787614      -0.29802153      -0.62398903       0.08622354       2.34397170
Pb       0.03963810      12.92828115       0.36647547      -0.07487470      -0.08449080       0.01943519      -0.53269540       6.76168766       2.02470610
Pb       6.50075763      13.07517082      -0.04457909       0.06552680       0.15257013       0.37504277       1.78122303       1.75597380      -4.24357756
I        2.80778916      14.63440616       6.93442032       0.04890702      -0.11254856       0.12728382      -0.49185707       0.69002213      -1.60798011
I        9.48982964      12.26380158       5.72274444      -0.03690209       0.07862664       0.17299400      -0.00451153       1.12559130      -3.40655469
I        6.07411054       9.86863677       6.10764655      -0.13940948      -0.15214418      -0.07808437       0.56058905       0.27914340      -1.91995234
I        7.32545512      15.74081681       7.44735474       0.36229622       0.37893337      -0.00438566      -2.21606823       1.32267220      -2.45074110
I        9.88431886      12.23872558       0.72483751      -0.16531767       0.14576847      -0.13088329      -1.36167514      -2.60530694      -2.11056404
I        3.09338396      13.71066072      13.11384173       0.26483172      -0.10269159      -0.14893324      -2.12112390      -0.50038345      -0.65087993
I        7.30739171      15.73543328      12.45575426       0.06232937       0.30453443       0.00239262       0.29911469      -4.45203986      -0.76510428
I        6.39956104      10.06275041       0.10694716      -0.10900206      -0.46247073       0.05823032       1.57049937      -0.91978741      -4.00706880
I       12.14028725      12.98079029       9.41894887      -0.21034451      -0.04127410       0.60928053       3.68892473       1.22779078       2.22405827
I        0.45559851      12.89163450       3.56323807       0.04437678      -0.12199356      -0.08697996       0.95181777      -1.59002382       1.76892421
I        6.04130887      14.05633650       3.62919925       0.15130979      -0.14036321       0.02684411       3.36325793      -0.38568918      -1.30202284
I        6.72851657      12.22484078       9.92860009       0.20132785       0.00038350      -0.29759715       1.00945259       1.36509001      -2.77990049
Cs       9.73810850       9.28542914      16.15905941      -0.00984508       0.07183951       0.00793358       1.03226030      -0.64807433       0.22763489
Cs       2.88388614      15.66950311      22.64326666       0.43473211      -0.06628567       0.15343432       2.26929295       0.54890373       0.24764132
Cs       3.54523700      10.12723808      22.91325865       0.09059368      -0.05383184       0.09406192       2.88687816      -2.65159707      -0.66950842
Cs       9.36776185      15.95166110      16.39004153       0.05037136      -0.04349923      -0.05465727       0.43678131       1.23525540      -1.35518270
Pb      -0.04974134      12.79323800      19.69574201       0.31944505      -0.24258849       0.01978002       0.62108363      -0.16358158      -2.43887858
Pb       6.40799437      12.98364182      19.20350522      -0.00589948      -0.11045595       0.07693056       3.10167453       0.77014435      -3.43956338
Pb       0.18216145      12.78078413      12.96479882      -0.33522550       0.42025878       0.14898489       0.19210701       0.15703384       0.17415231
Pb       6.27026308      12.70749717      12.95268967       0.04894963       0.20182069       0.09958718       1.24864041      -0.57895681       2.98425848
I        3.27766219      13.18131893      20.04176604       0.14404672      -0.25972036      -0.11123011       4.16699896      -0.46009921       0.84675571
I        9.45969168      12.18088430      18.90092023       0.18882670       0.06009448       0.03416535      -1.55030355       2.55104004       3.33449298
I        6.24592258       9.37124789      18.44368597      -0.11732553       0.22922777       0.05936001       3.03464413       2.58503775      -1.51541259
I        7.16276992      16.03413922      19.58083452      -0.09241332      -0.11091696      -0.16012530      -5.09594016       2.76518502      -1.92404757
I        9.27767435      12.46044341      13.61044294       0.40665916      -0.13445218       0.01107990      -0.35017055      -2.47057227       1.60537901
I        3.29845514      13.28479846      25.88431376       0.10153981      -0.00396677      -0.08242526      -3.09773459      -1.17314117      -0.57034712
I        7.53199988      16.10738757      25.13138672      -0.23369550       0.27423512       0.56717920       1.41815580       2.23174600       1.10111411
I        5.97819393       9.60468831      13.36061670       0.04931361      -0.16260761      -0.05236383      -1.38323856       0.77398960       1.12896815
I       12.29785327      12.60399046      22.99992403      -0.02279152       0.20710031      -0.63625516       1.60463144      -2.13306409      -0.51933759
I        0.51026198      12.76142691      16.17784758       0.14457810      -0.04508730       0.19328225      -3.22832989       0.53463600      -5.02993254
I        5.88824862      13.46344903      16.21343477      -0.03940035       0.01295337       0.10438533       1.71376637      -2.97904262      -0.98108199
I        6.81798481      12.79541743      22.82854033      -0.02954553      -0.14332982      -0.37023470      -1.47228623       2.79572754      -1.91834773
Cs      15.13305929      15.84092316       3.40580230       0.34154392       0.24661301      -0.03506026      -2.30855474      -2.80380880       1.72550505
Cs      10.58951582      22.49001610       9.79358236      -0.04124067       0.05036255       0.02713511      -2.37606350       1.91484171      -1.39529627
Cs      10.39597428      16.51218649       9.88442100      -0.23898087      -0.09801508      -0.01432516      -3.89042188       0.72932320       2.49699102
N       17.51151890      21.85639199       2.32201512       1.63030237       0.39213130       2.40434260       0.43374426       0.32688410      -0.14125278
C       17.67287699      23.33188032       2.57832154      -2.54493559      -0.29403103       0.88686284       1.34894949      -0.41113307       0.34006631
H       16.80951732      23.82964929       2.05226289       0.92384640      -0.12261377       0.22516740       0.05641856       0.23153365       0.04356138
H       18.64733886      23.62608453       2.25756170       0.72130400       0.52450094      -0.28711506      -0.18031647       0.07337293       0.12588875
H       17.48605338      23.46596999       3.67948997       0.48360846       0.04516516      -0.77886630       0.03157595      -0.24263270       0.09576347
C       16.36767178      21.23116014       3.02603765      -0.20824300      -0.50582641      -1.17719170      -0.46694127       0.56316167      -0.91439493
H       16.55217101      21.22846041       4.09764365      -0.23453598       0.21637192       0.18599127       0.04600379       0.05279804       0.17932793
H       16.29807559      20.19008493       2.63173567      -0.11848789       0.44651691       0.38486624      -0.03820880      -0.01813697       0.14944290
H       15.51753225      21.81740032       2.64007138      -0.27128732      -0.27899812       0.71877518      -0.05635836      -0.02934701      -0.17117232
H       18.42205595      21.44712004       2.65281330      -0.56145384      -0.22783971      -0.40334379      -0.11160593      -0.17066008       0.13568016
H       17.41374438      21.68087267       1.35254842       0.15915503      -0.23221559      -1.94370392       0.09325621      -0.15937969       0.04181680
Pb       6.94434468      18.77488991       6.51832118       0.00365628       0.47294358      -0.07965828      -2.12721332       1.22221025       1.09674876
Pb      13.20294859      19.47384438       6.61025674      -0.02916433      -0.15558943       0.02005379       1.76660167      -1.66281203      -3.90451746
Pb       6.93243925      19.17514546       0.02860390       0.21414168       0.19769838      -0.02529387      -3.66749259      -2.95343270      -3.40354344
Pb      13.17491000      19.25610214      -0.01378545       0.09499897      -0.09860454      -0.05310284      -3.77309735       0.07812686      -4.08778078
I        9.99657568      20.04058123       7.01665405       0.14042512      -0.18088420      -0.10058020       2.50273581       0.00648868      -0.39075567
I       16.82567042      18.82493261       6.43887656      -0.25589001       0.00414847       0.00050978       2.66913683      -0.12213500       0.27575271
I       12.61378334      16.21319791       6.59494234      -0.01839678       0.04690427      -0.01743590       0.43736831      -1.07356742      -2.12349063
I       13.70537078      22.51583104       7.04137823       0.05716298       0.16604133       0.05444811      -0.38926347       1.13171232      -2.21354653
I       16.15894594      18.05528071      -0.01195627       0.19750034       0.20915206       0.17701990      -2.06438720      -4.51711733       1.57683327
I        9.91720219      20.05137355      12.73435272       0.07446374       0.02137868      -0.01383268       0.73241091       0.65570937       2.62634156
I       13.77537808      22.44020885      13.15569906       0.15767486       0.18042463      -0.10371553      -1.81528109      -0.10140906       0.60505910
I       12.05922776      16.46414069       0.09967372      -0.12513384      -0.32555317       0.05028270       2.29947736       0.44921820       1.48139905
I       19.13616668      19.65366853       9.89831814      -0.00943573       0.09521395      -0.60380636      -5.60279763      -2.12234883      -0.29481151
I        7.93975756      19.32070731       3.57867296      -0.11176215      -0.23627144      -0.14478379      -2.64348314      -1.59091897       1.29104424
I       12.85412713      18.82026474       3.28299067      -0.04352107       0.24266710       0.08278512      -0.89276359      -1.30527585       4.14822621
I       12.91984528      19.04422678       9.81293976       0.35764783       0.16985427       0.00962352      -1.75170403      -0.13171556       1.10433579
N       16.76225219      15.38643185      16.75855146       0.14038518       0.79503568      -0.00367434       0.75169772      -0.35531553      -0.31406738
C       17.72688379      16.62770223      16.87071107      -1.75545507      -0.93819488      -1.39534876       0.51387116      -1.64999100       0.64380296
H       18.03448950      17.04134539      15.89844044      -0.52968341      -0.35634889      -0.17094225       0.08958281       0.12486399       0.10960558
H       18.60064444      16.37487649      17.36649496       1.75636499      -0.87536778       1.24438000      -0.11424998       0.01355421       0.06088396
H       17.19074400      17.37812435      17.43566179      -0.34845387       0.23582419       0.17955172      -0.09026513      -0.03211822       0.08583883
C       15.51581070      15.79489631      15.96928857       0.55211792      -2.04159407       1.55617406      -0.30132101       0.20604705       0.22924067
H       14.96941660      14.86368570      15.78927632      -0.17431071       0.04608171      -0.13455397       0.16480859      -0.05737601       0.12702809
H       15.78567716      16.24690742      15.04937012       0.29660182       0.84070423      -0.80731486      -0.17669671       0.02663932       0.01184979
H       14.97323305      16.35976853      16.70046581      -0.66484097       0.95405143      -0.08098974      -0.00902933      -0.19814889       0.04034638
H       16.45400423      15.13476577      17.73770450       0.19369351       0.17680159      -0.41767910      -0.08338239       0.04857540      -0.11580954
H       17.10810651      14.43767584      16.42518919       0.53609610       1.13382740      -0.08199094       0.04107473      -0.01305234       0.12529154
Cs      10.56358858      23.19234017      23.07262834      -0.02207557      -0.16698232      -0.05519085      -1.00933090      -1.08897798      -2.64349856
Cs       9.41075591      15.69996005      22.39312016       0.57163920      -0.03838050      -0.28591105      -1.90022339       0.65914715      -0.06624114
Cs      16.67990873      22.26198175      15.80220794       0.02656321       0.01972639       0.00000711       2.83196931      -0.21060011      -1.99782074
Pb       6.75288204      19.40206705      19.33055365       0.10186446      -0.22623169       0.23952318      -2.10657309       1.96865844      -0.74688747
Pb      13.14633725      19.03910616      19.74005677      -0.07549229      -0.05171670       0.09145039       3.35129404       0.30385349       1.77994310
Pb       6.88516786      19.49674330      13.04032277      -0.18665468       0.03019015      -0.07771523       1.02883993       2.57548630      -2.08402635
Pb      13.00954228      19.46440282      13.30583365       0.01501342      -0.20607778      -0.08183338      -1.13605282       0.51982263       0.66220533
I       10.17578771      19.17425222      20.43485617      -0.52478287       0.15794518       0.02981256      -0.07476194       1.55907068      -1.87174802
I       16.10166050      19.29961324      19.48050930       0.59363676       0.08651748      -0.11537561      -0.76894408       1.68278131       0.70890916
I       12.39747854      15.94086469      19.37239380      -0.04849225      -0.25584528      -0.07077590       1.13641535      -0.60292100      -1.93795044
I       13.30987457      22.35270360      20.71987377       0.08839270       0.10211248      -0.12808100      -1.16604119      -0.41677498       0.01299412
I       16.33615914      19.18092419      13.26150020       0.11960350      -0.10729912      -0.02534467      -1.72582539       3.07311386      -2.38798393
I       10.25820676      20.48384349      25.68666189      -0.13230771       0.00918884      -0.01704295       0.72673243       0.99297153       0.49336285
I       13.90262900      22.78623803      25.50451372      -0.05364760       0.08444249      -0.01922318      -3.78529854      -1.32863824      -0.93837204
I       11.98328217      16.18100715      13.30857009      -0.02189603       0.07270191      -0.02429568       1.38524224       0.73996385      -3.60661268
I       19.52156781      19.74649282      22.47365656      -0.10371234      -0.23552787       0.07273899      -1.37887126       1.40410182      -0.60211425
I        6.50779501      19.06490701      16.20498253       0.05754130      -0.13616649       0.00527486       1.89617284       0.99397347       0.28819628
I       12.10058861      18.76332702      16.17398110       0.09589150       0.04375335       0.24174226      -1.82428132       1.73709428       2.77297250
I       13.87667986      18.05573080      22.63616035      -0.10663244       0.15855498      -0.01279901      -2.07253674      -0.25022280      -0.72673365
Cs      10.38915638      22.38196529       3.72494134      -0.10070691      -0.04569039      -0.08900975       1.82906459       2.56327831       2.53730900
Cs       2.79996104       3.36900850      10.42048592       0.03612623      -0.02044608      -0.16725853      -1.53729754       1.82304693      -0.48546555
N        3.92415717      23.21081886      10.56134225      -0.63430329      -0.47005118      -1.65239676       0.11741076       0.66840170       0.55812519
C        3.54630059      21.85888619       9.87377866      -1.85268778       2.73200212      -0.04586953       0.35175933       0.78412661      -0.02837831
H        2.58305523      21.64504954      10.39259431       0.43688474      -0.36414439      -0.56484018      -0.28155953       0.09388708       0.10809808
H        4.27649225      21.09875824       9.99639869       0.80838626      -0.57310278       0.10911039      -0.17248702      -0.04853524       0.08327568
H        3.32749624      22.18160361       8.81409544       0.32366732      -0.77990634       0.88407408       0.13746829      -0.29506422       0.15439534
C        3.16885767      24.36183971       9.92804029      -0.85414624      -1.49900541      -0.67422718      -0.56512801       0.20768699      -0.37881371
H        3.22160965      25.20862128      10.57921574       0.00894345       0.74600708       0.51724049      -0.07403177       0.09127832       0.15141802
H        2.12648781      23.99380556       9.76572446       0.39489210       0.34470982       0.42736544      -0.20448044       0.08190022      -0.15721706
H        3.52241572      24.59944899       8.90971476       0.45980045      -0.17765637       0.31551697       0.27649763       0.26400460       0.19376325
H        4.91123751      23.42436712      10.44159876       0.82508253      -0.03561316       0.03055701      -0.10718246      -0.06389355      -0.15942391
H        3.71378608      23.15923504      11.55918189      -0.03436799       0.02546081       0.49447645       0.03886336      -0.05451340       0.31888435
Cs       9.94025107       2.71144442       3.18814498      -0.23089422       0.00501546       0.13946247      -0.53774792       1.00967739      -1.01466514
Pb       0.35778109       0.32767555       6.63881645       0.03044587      -0.06457476      -0.09980211       1.12011642       0.21791897       0.06450133
Pb       6.62527307      -0.18229599       6.38140604      -0.06811587       0.13582950       0.00894272       2.85646323       0.56512032       2.73184794
Pb       0.12792477       0.42141087       0.18249582      -0.02856533      -0.28067424       0.15875618      -1.84035797      -0.66949393       0.83602273
Pb       6.41009735       0.22896346       0.06684552       0.01113746      -0.13007758      -0.20992798      -2.21356808      -1.11714539      -3.12386014
I        3.57052463       1.47319136       6.70367162      -0.22243163      -0.26461121       0.11228006       0.71567253      -2.31792035      -0.19311735
I       10.02873327      25.04050314       6.73692840      -0.09904479      -0.08229108      -0.08899513      -0.21417178      -0.92419459      -1.14741436
I        6.56245219      22.29856578       6.05946476      -0.12501039       0.03003568      -0.04343431      -0.02299561       2.24381534       1.30461750
I        6.73388902       3.31714553       6.15683281       0.30897026      -0.00291811       0.00946955       0.86505905       1.23696877      -0.18026598
I        9.68909786      25.24991048       0.00215113       0.40319437       0.04982698       0.03898143       4.01146284       0.87135631      -1.15123159
I        3.27454553       0.36727663      13.38003916       0.19476437       0.24687768      -0.08479340       0.69320715       2.18453597       2.39397625
I        6.95783495       3.24041197      13.07131549       0.04990455      -0.29449875       0.02179965       2.85135169       3.19896241       0.03026959
I        6.10371125      22.34444733       0.63346397       0.08310622      -0.12573755      -0.02128207      -0.35377340      -0.64220584       1.14102073
I       13.07199196       0.64812153       9.87725487       0.02873029      -0.15460299       0.13380643      -1.82163639       0.69639162       0.97569832
I        0.21560941      25.57105028       3.57262753       0.01298580       0.04103729      -0.17921626       1.99231630       4.48786589       0.05225969
I        6.77973374       0.26265367       3.11770256       0.08178803      -0.05643029       0.32513856       0.72330898       0.76871327      -1.86224412
I        6.89700418      25.15928786       9.85275770       0.02048380      -0.01221982       0.10044212       1.44839399      -0.34780417      -0.05267087
N       10.35453493      21.93331111      17.70037459      -1.43670807      -0.03914426       0.45462895       0.03529856       0.43685676      -0.03455236
C        9.02168016      21.91374374      16.97293156       0.31733638       1.12124704      -0.09478363       0.60818687      -0.68237426       0.25051600
H        9.00581429      21.19411321      16.16929131       0.31956209      -0.56530367      -0.30468689      -0.04521198      -0.09525759       0.16170770
H        8.88229015      22.90900059      16.50863748       0.03621396      -0.18282436       0.27407933      -0.31451492      -0.15130979       0.09509439
H        8.20423583      21.72003655      17.66567435      -0.00741216      -0.04893358       0.16228711      -0.12177140      -0.09793332      -0.01807731
C       11.48621522      22.30948265      16.84120774      -0.02075833       0.83821124      -1.57937510      -0.07628616       0.39814374      -0.41182364
H       11.40272086      23.32061123      16.41681047      -0.32809999       0.16768494       0.52300785      -0.04728175      -0.12717657      -0.17670955
H       11.45475453      21.67595295      15.92294843       0.09127067      -0.11443998       0.64161971       0.04414699      -0.28410227       0.07702240
H       12.43650726      22.22388666      17.34156884       0.42168395      -0.22746207       0.39004907      -0.19047392      -0.00861857       0.17128832
H       10.58740471      20.98899240      17.97194482      -0.05284962      -1.19554153       0.37659157       0.00545768      -0.01335551      -0.03970145
H       10.16428149      22.37446109      18.64780882       0.80589854       0.43818420      -0.91217778      -0.15081115      -0.10226520       0.09017785
Cs       3.38363353       3.40631913      22.71479578       0.35670606      -0.24687701       0.11858654       0.86774327       2.47583810      -1.32025152
Cs       3.61837962      21.82160560      22.45532365       0.02919827       0.09537693       0.20939982       1.32765909      -0.03207037       2.58568913
Cs       9.69229920       2.68284261      16.47493124       0.00143766       0.15390928      -0.18391185       2.85693044      -1.02880466       0.56624978
Pb       0.15049396       0.62134812      19.41654942       0.04688153      -0.45090747      -0.39851044      -4.34091138       0.36900724       3.49152733
Pb       6.32392869       0.05235492      19.51351020       0.25508727      -0.03079828       0.11488076      -0.18589059       0.52289308      -0.65138379
Pb       0.03247051       0.21998717      12.91295604       0.23109476      -0.00605677       0.00815709       1.30120228       3.03557830      -1.77843704
Pb       7.04046521      -0.03111976      12.83786513      -0.07201335      -0.00932335       0.07594868       4.50821624       0.87949766       1.59329605
I        3.47703470       1.01553312      19.57915126      -0.31660157       0.09116007      -0.23437526       0.90785465       2.62102714       2.33648163
I       10.06384410      25.26305781      19.92941054       0.09905258       0.07794516       0.00167226       0.00134651       1.13729055      -1.18756282
I        5.84131237      22.39272138      19.31988938      -0.13993234       0.11385432       0.01948589       0.90940020      -0.53292820       4.03794676
I        7.40170780       3.17900041      19.44620417      -0.01238936      -0.04013850       0.24335490       1.96554057      -5.09267114       3.23357208
I       10.43053382      24.67461821      13.15883221      -0.67125701       0.02211844       0.00796501      -3.70199027      -0.04319498      -3.78175193
I        3.32693373       0.46278074      25.82323783      -0.30837046       0.21313026       0.07308916      -1.15013925      -1.47714223      -1.55105449
I        7.10912837       3.37851792      25.31117051      -0.09737350       0.16226667      -0.08050132       0.56832886      -0.44846112       0.66181747
I        6.09106508      22.64908963      13.49430370       0.14048385      -0.23212014       0.04093802       0.95059092      -1.81321087       1.81042201
I       13.22151802       0.86707311      22.48152488      -0.07677396       0.07058558       0.18654954      -0.34146357      -0.95455170       0.73547858
I        0.74163364      25.29877265      16.19497595      -0.07289775      -0.01265867       0.08228977      -0.68493625      -0.15723394      -0.92975145
I        6.86973690       0.42210641      16.44577471      -0.20244758      -0.13081885      -0.24684615       1.12615634      -1.75022104       1.88014750
I        5.91844512      25.02570929      22.87814605       0.13369907       0.01961255      -0.15274586      -0.51920901       0.95916512       0.10823218
N       16.21808619       2.89314802       2.26379897       0.12123956      -1.07293239       0.93848337      -0.49063552      -0.50204314       1.18070113
C       15.23880040       2.94098737       3.42472784       0.17064297      -0.22196125      -1.82277114       0.51608220       0.69732146      -1.06463839
H       14.28612803       2.61451746       3.00823495      -0.54120717       0.72550155       0.00250627      -0.00221864       0.15518859      -0.03063909
H       15.31903724       3.92052135       3.90324798      -0.26333818      -0.06305066      -0.03102290       0.14545291       0.09821287      -0.26998968
H       15.48368724       2.13458838       4.06682977       0.67662376      -0.68196461       1.02932184       0.30407320       0.00315050       0.17189749
C       17.59434585       2.56885403       2.76381307       0.20017194       1.24574967       2.55061770      -0.57132516      -0.40383249       0.46411955
H       17.70505647       1.63237167       3.38115837      -1.07650090       0.56678703      -0.21239782       0.16354889      -0.24348051      -0.23294020
H       17.99583672       3.42243503       3.46162071      -0.69707800      -1.21184231      -1.44782231      -0.43930473       0.13593562       0.09367903
H       18.21940603       2.33069045       1.95751717       1.14400672       0.29425161      -1.50828717      -0.13729771       0.00340518      -0.27366801
H       16.12097013       3.76244732       1.71610677       0.56177045       0.70182031       0.07794936       0.10443406       0.24024079      -0.05370459
H       16.01100672       2.16590059       1.50699357      -0.29796631      -0.13182614       0.63287404      -0.14582932       0.13754422      -0.11921745
Cs       9.84673943       9.26147429      10.22597330       0.01010814       0.20475545      -0.19548003       2.43684989       1.68990925       1.70950647
N        9.52530610       3.55112587       9.98515778       1.09183200       0.36169953       1.54331420       0.90020605      -0.22045411       0.10547785
C        9.32535201       2.38946166       9.09141866      -0.47658000       1.02053690      -0.69389716       0.54485642       0.00086029      -0.79319091
H        9.73242551       1.53931925       9.57103391       0.82013304      -1.06776079       0.55233142       0.10963207      -0.16577667       0.15765257
H        9.90892309       2.64094997       8.17198597      -0.72791974      -0.42041198       0.29774022      -0.48922608      -0.31387940      -0.06099014
H        8.25125716       2.16844109       8.97280917       0.22455617       0.36408264      -0.35471247       0.36863552       0.07197223      -0.04934189
C       10.94931532       4.03967016       9.93806516       0.61198266      -1.06318638       1.23887862      -0.85754758       0.11813737      -0.84397688
H       11.03751777       4.82330094      10.73424753       0.26466339      -0.62056349      -0.55431777      -0.21827031      -0.11071929      -0.12660676