720
Lattice="26.333301049220527 -0.2264394204768281 0.45865155867226876 -0.255186569780058 26.506643565937114 -0.3226389773396117 0.38562687234013476 -0.22195221768488593 26.395203762822064" Properties=species:S:1:pos:R:3:forces:R:3:momenta:R:3 energy=-3005.734619140625 stress="0.002219824818894267 -0.0006239885115064681 0.0005275923758745193 -0.0006239885115064681 0.00046011561062186956 -0.00035683216992765665 0.0005275923758745193 -0.00035683216992765665 0.0006106559303589165" pbc="T T T"
N        9.96068004       9.79650389       3.98748950       0.65979896      -0.15676548      -1.19611525      -0.64533208      -1.52291401      -0.03064428
C       11.21723170      10.06830816       3.18576641      -0.59348403      -1.86704076      -1.35454153       0.18196637       0.65908576       0.76292872
H       11.49152205       9.17098654       2.53144472      -0.70061696       0.62006380       0.93142268       0.12376985      -0.07008340       0.11491567
H       12.00709379      10.15069422       3.87912630       1.10127400       0.64073580       0.85414624      -0.23337469      -0.01644633       0.16248697
H       11.11132363      10.87020883       2.45068355      -0.27008742       0.47421287       0.46106725       0.23888425       0.05626436      -0.01342948
C        8.83542268       9.38980380       3.08028799      -0.02086496      -0.05412024       0.48493484      -0.52454667       0.42775600       0.80098605
H        8.04304098       9.02603615       3.75940230      -0.07313185       0.24290741      -0.52880625      -0.08035137      -0.10123384      -0.04123592
H        9.18045023       8.57796642       2.42078423       0.02072986       0.06114974       0.25158419      -0.04856384      -0.10877638      -0.00019604
H        8.56223048      10.24332406       2.45378702      -0.17851375       0.09960708       0.15438366      -0.03043584       0.06181811      -0.02653447
H        9.73238465      10.60997395       4.59995404      -0.09710079       0.00902528      -0.12317168      -0.23641871       0.14220428       0.02284537
H       10.14159176       8.99987235       4.62473385       0.04737969      -0.05591685       0.21826254      -0.15282432       0.12536029       0.07566794
N        4.23920138      16.53913607      10.50512061       1.57152527       1.18701433      -0.93209056       0.10922861       0.44460676      -0.55347322
C        4.99139147      16.60931063       9.16583020      -0.70640908      -0.17537642       1.01349929       0.41422288       0.15875459       0.74671727
H        4.82952813      17.62053233       8.84175200      -0.14024634       0.62423512      -0.53816616       0.02803601       0.06155177      -0.02465658
H        4.57684496      15.88715638       8.43604615       0.11499372       0.11300055       0.40685494      -0.11281482       0.02764164      -0.05906563
H        6.04491010      16.49608487       9.35985245       0.56619117      -0.31384248       0.08034903      -0.05774704      -0.20558009      -0.14760125
C        2.81854981      16.82270930      10.23868051      -1.75628568      -2.01723446       1.49440102      -0.63143612       0.28574588       0.99587539
H        2.25694637      16.00414775       9.68558351       1.11337297       0.53802858       0.10144759       0.28278244      -0.38612550      -0.16489501
H        2.73896005      17.74047506       9.69865535      -0.13686365       0.85550891      -0.31189994       0.01576491       0.10350847      -0.15228824
H        2.25684582      16.79994470      11.21359012       0.46046019       0.57003870      -0.58543048      -0.06545799       0.12125054      -0.20345349
H        4.66050850      17.30505591      11.15596807      -0.59233088      -1.08201339      -0.73488292      -0.22518128      -0.13426736      -0.14208310
H        4.47742329      15.64233512      10.99314795      -0.55949287      -0.10603541      -0.01836476      -0.19952738       0.03506421       0.36425528
N        3.67496129      10.10428258       9.27456322       1.19512143       1.96379898      -0.12452368       0.88518763       0.91474588      -0.48160701
C        3.12297305       8.82054946       8.86096322      -1.48347652      -0.46409307       0.57617530      -0.64424953      -0.88866437       0.25200102
H        3.51767725       8.60548150       7.86278696      -0.09423884      -0.35105634       0.02810851      -0.13960994       0.10046714       0.00257749
H        1.98792362       8.90237966       8.84657981       1.14805596      -0.14641624      -0.05749366      -0.22998471      -0.04681527       0.05164161
H        3.43352382       8.11374401       9.64502236      -0.06622652      -0.32737773      -0.41731226      -0.23118080       0.20733607      -0.19926057
C        3.41565892      10.54986930      10.67292686      -0.39665358      -0.12283926       0.89843904      -0.39293312      -0.06411568      -0.86701136
H        3.73020787      11.57737683      10.96719780      -0.35122822      -0.21393166      -0.90207757      -0.12161154       0.04082161       0.04622697
H        3.98221730       9.94266040      11.35804840       0.43616514      -0.77027723       0.23445435      -0.27261041       0.28704867      -0.03080666
H        2.36118813      10.34593761      10.87930207      -0.15265650       0.32138275       0.00537013      -0.35520001       0.08732626      -0.07657445
H        3.26565679      10.83794225       8.66395312       0.45052952      -0.08710870      -0.11332247       0.13204480       0.12535160       0.03845964
H        4.71926130      10.08550102       9.12315538      -0.71343051       0.30030692      -0.18977365       0.08780212      -0.01873094       0.30738434
N        9.79113266      16.01633328       3.29873690      -1.37232012       0.33257745      -0.00738670      -0.06923045      -0.98037698       1.12870665
C        9.64774857      16.86708946       2.08997720       0.70625890       0.98798733       0.68391304      -0.43346731      -0.00767175      -0.38321086
H        8.91262419      16.53729056       1.39309438      -0.52559892      -0.89226576      -0.52633591      -0.08403246       0.22849067       0.14393041
H       10.66572554      16.84107339       1.65007236      -0.59014386       0.64487502      -0.06787669      -0.02580547       0.20449571      -0.07539149
H        9.23730512      17.83884268       2.42730575       0.80867734       0.05545792      -0.16959826      -0.14436407      -0.06548230       0.06041601
C       10.92331028      16.46052451       4.14078761       1.38955496      -0.49583860      -0.68263038      -0.31763079      -0.38667464       0.07496126
H       11.05030775      15.74166589       4.95519804      -0.20985450       0.10858083       0.34887241       0.56707948       0.06113170       0.00507825
H       10.79927370      17.51927695       4.52622609       0.06579885      -1.05863850      -0.60399433       0.07425558      -0.22261883       0.19383655
H       11.82896834      16.27633628       3.47872503      -0.59294565       0.85011002       0.76836511       0.07840308       0.04463644      -0.24456278
H        9.83614079      15.06254250       2.90227107       0.48387258      -0.52163330       0.36480468       0.07523826      -0.23638923      -0.27111340
H        8.92538919      16.05013235       3.89044224      -0.04019973       0.07661196      -0.12956249       0.10392840       0.03193836      -0.13440891
Pb       0.04012811      13.53589576       6.95904586      -0.01185261      -0.28407038      -0.29109462      -4.12545730       0.92672762       0.63246894
Pb       6.52668765      13.55332165       6.82507422      -0.01295114      -0.19697839      -0.43937960      -1.43287664       0.83070890       0.97626391
Pb      -0.45319709      13.20580785       0.10562523       0.06776475       0.02335171       0.09802085       1.97601466      -0.81601761      -0.59989451
Pb       6.30490649      13.52749777      -0.06557012      -0.08921823       0.02260291       0.09766344       2.65362524       2.06998629      -3.31312936
I        3.31411392      13.53576003       6.78479978      -0.10140331      -0.02551010       0.03396990      -0.85797348       1.16895013      -0.19284446
I       10.08269228      12.54454033       6.55193011      -0.21156139      -0.00895464      -0.03269169      -0.44455223       0.01097999       2.07616347
I        6.32678628      10.05494353       6.43472577      -0.12732232       0.05784599       0.11003362       0.57596672       3.13474777      -2.21582723
I        7.34037340      16.78040375       5.73887129      -0.12968641      -0.28329807       0.18020347      -2.65632208      -2.73806587       2.14043841
I        9.56231994      13.46370723       0.76392157      -0.35016950      -0.05540030       0.02220781       1.72484239      -1.05225092      -1.97507626
I        3.91466181      14.22088295      12.96841050      -0.29962426      -0.09462002       0.20983687      -2.51116680      -0.80112064      -2.06271584
I        6.96799467      17.33027760      12.81054789       0.07157678      -0.11682096      -0.10501142       0.25954208       5.29935949       3.08321449
I        6.04038451       9.48240058      -0.55103711       0.17268780       0.26372305       0.01782656       1.36670222      -0.71558288       1.15319806
I       13.21209384      12.48928320       9.89907440      -0.02723550       0.04012132       0.29522401      -4.29110326      -0.02805611       1.23148286
I       -0.43353354      14.06286094       3.41490998      -0.02615584      -0.19147378      -0.18015283       0.86529433       2.27039467       3.74494848
I        6.26317011      13.31003568       3.51042993       0.06295767       0.12558434      -0.05671017       2.70175057      -0.46258256      -0.85893770
I        6.51112685      12.96873064       9.94602673       0.00762692      -0.01665829       0.07115211       1.42338171       1.24515568      -1.16000298
N        9.23698272       9.98524527      16.53640806      -1.03865264      -1.45804857       0.96116883      -0.15349638      -0.63298279       0.34899843
C       10.11773618      10.45772200      17.64772457       0.27479659      -1.48548735      -0.22151345       0.44840527       0.35629862      -0.34684840
H        9.83412631      11.47649541      17.79478331       0.24659774       1.01255862       0.36012889      -0.05676388       0.05494374       0.14679331
H       11.18304357      10.27740005      17.41515576      -0.37651533       0.29370669      -0.14729724       0.08203710      -0.09084261      -0.07855273
H        9.84725556       9.86647766      18.51916155       0.01644287      -0.05454965       0.31831806       0.00209005       0.41369475       0.13852278
C        9.43316280       8.53087863      16.12259748      -1.35572959      -0.21812196      -0.44981983       0.93570611      -0.20502016      -0.49046221
H       10.45068113       8.33507183      15.82782076       0.51210055       0.11181072       0.03631510      -0.07547251      -0.08659085       0.06788451
H        8.71571760       8.08244136      15.34932849       0.77864783       1.45340778       0.37622825       0.02950334      -0.04412528      -0.17740051
H        9.10120810       7.94809112      16.97357047       0.56910934      -0.20017120       0.68857796       0.10993179      -0.14930571      -0.04136014
H        9.29179950      10.69978439      15.82920747      -0.04852650       0.29363469      -1.35807843      -0.07392780      -0.14914384       0.11124367
H        8.25478892      10.00655818      16.92823055       0.61278487       0.31014045      -0.51216266       0.40314818      -0.05085257      -0.04133372
N        3.25609540      17.38013365      23.27942041      -0.65845697       0.41325110      -1.27823678       0.36226740      -0.62469899      -0.96910162
C        2.45153965      16.29735082      23.77986190      -0.60619562      -1.76121285       1.24814534      -0.80893909       0.61396910      -0.83373733
H        2.71865521      16.15655231      24.86139745      -0.00078068      -0.37988730      -0.83098149       0.10825060       0.07186214      -0.17954896
H        2.61398769      15.38197960      23.17526457       0.07047833       0.32244805       0.33953208      -0.08533509       0.01188761      -0.13204221
H        1.38284728      16.53844757      23.79317606      -0.00183025       0.20210126      -0.22192157      -0.29947907      -0.20847809      -0.15137127
C        4.51626858      17.01652809      22.62164345       1.19913245       1.02603051      -0.54810240       0.17621921      -0.87624306      -1.52125754
H        5.19183170      16.63809706      23.38672554       0.26229381      -0.01298642       0.15226047      -0.00569893      -0.14190428       0.03386398
H        4.89290103      17.98184287      22.18069399       0.09514047      -0.97327900       0.31192518       0.07924408       0.04663431      -0.26169681
H        4.42340485      16.26598186      21.83920585      -0.47717490      -0.14271601      -0.16838979       0.09568315       0.21330504       0.03760564
H        3.49560326      17.94331642      24.07810136       0.15478057       1.19054338       0.64395031      -0.00846566       0.04309540       0.02522996
H        2.68550100      17.94442443      22.61814793       0.11374273       0.11112276       0.29508496      -0.03577842       0.06838567      -0.03427595
N        3.78134471      10.02380743      23.70370382      -0.83577610      -0.93536426      -1.29817006      -0.20750359       0.02163625      -0.02188706
C        3.96713101      10.61292713      22.33692244       0.21825854       2.70111349       0.75345276       0.01945824      -0.09808301      -0.06312274
H        4.72146872      10.11360278      21.78363649       0.56728327      -1.00987206      -0.45572435       0.00229056       0.07705577       0.03979974
H        4.34802296      11.70083287      22.40951916      -0.37080275      -1.30885607       0.38315705       0.41543649       0.06928854       0.17875017
H        3.05085772      10.75122570      21.76636673      -0.51295985      -0.72200689       0.17221158      -0.07637017      -0.23413325       0.23643719
C        3.11076663       8.64097523      23.60477483       0.74056676       0.58198672       1.00081366       0.79152396      -0.40447997       0.99879955
H        2.08394198       8.63042209      23.29073651      -0.60301377       0.66827367      -0.44718800      -0.29543356       0.21239607       0.13665671
H        3.16126883       8.15058962      24.57446942       0.00258588       0.10840327       0.39987518      -0.38715590      -0.09733786       0.18299870
H        3.69986077       8.03016989      22.95203060       0.51152371      -0.21333063      -0.75930379       0.07393065      -0.13125747       0.16314917
H        3.22929138      10.70024123      24.28395781       0.25089335      -0.34680926       0.11114332      -0.11176412      -0.00759303      -0.05802874
H        4.72092825       9.84008799      24.15569012      -0.28238645       0.40340121       0.02045989       0.19289836      -0.11823121      -0.03390024
N       10.99409095      16.86720395      16.34625470       0.07027024      -0.84088449       0.11627910       0.13405245      -1.05356214       0.79524740
C       10.65369500      15.74233690      17.28195358       0.17374804       0.46017510       0.88050011      -0.36757899      -0.76800573       0.88940152
H        9.58184297      15.90238171      17.45332465       0.14154274      -0.22099010       0.70328054       0.11938821       0.42397786       0.25065078
H       11.28202572      15.72491387      18.21518057      -0.53014642       0.29545429      -0.72647134      -0.04834107      -0.05735884      -0.25719263
H       10.74142581      14.78341889      16.79555755       0.30797469      -0.38327912      -0.55527458       0.06867426      -0.10236220       0.25466547
C        9.97866611      16.84773303      15.29733514      -0.09019887       1.36607883      -1.69314987      -0.04983761      -1.34270332       0.35480887
H       10.17877814      16.02307357      14.64036051       0.09913376      -0.57839478      -0.55434512       0.03585046       0.19603429      -0.01726649
H        9.99786681      17.80419162      14.71819768       0.15796327      -0.61739817       0.24827757      -0.27295444       0.11005308       0.03319824
H        8.96992508      16.74248737      15.66257610      -0.38584004      -0.04535924       0.65599406       0.15611272       0.11088737       0.10639464
H       11.94884044      16.80839465      15.90250279      -0.37596942      -0.07678134       0.29586610       0.10552388      -0.03585637      -0.02414022
H       10.88946912      17.76561671      16.81465708       0.38281073       0.57214157       0.58108302      -0.00832059      -0.06176189       0.30265920
Pb       0.34116062      13.59539365      20.06224497      -0.20806207      -0.07151724      -0.19873962      -0.42308339       1.69226027      -6.63593157
Pb       6.80277391      12.93002425      19.60600562       0.03226625       0.30347552       0.27616755      -3.11843489       1.26499663      -1.62112898
Pb      -0.09525030      13.20747777      13.41431397      -0.02853180      -0.10832392      -0.02324305      -2.44101618       2.23264784       2.28662563
Pb       6.63550034      13.03650932      13.05970602       0.16087580      -0.18206310       0.06973007      -3.17538469      -0.68630692      -1.16821268
I        3.33251802      13.39359986      19.69108515       0.20832037       0.07555177       0.05456417      -1.64900803      -2.21098021       0.25657912
I        9.96432775      12.95131900      20.24585379       0.09262503       0.04686976      -0.04213824      -1.90291078       0.03920538      -0.07265246
I        6.64957473       9.17810705      19.66310343       0.07663321       0.30583521      -0.06993927      -1.88604227       0.77119296      -1.15809491
I        7.22545851      16.17400927      19.53288618      -0.21467937      -0.25604271      -0.00520847       0.57523813       1.10623111       0.02179168
I        9.74420101      12.80698317      13.85390802       0.27071696      -0.01711250      -0.09832651      -0.19025693      -0.35224020      -3.24663232
I        3.06564391      12.92085465      25.91944649       0.28755089      -0.01790850       0.12939250       0.36179907      -2.19940242       2.62920677
I        6.76239299      16.45114860      26.45348865       0.06775409      -0.19478987      -0.31215443       1.76522012       0.68724161       2.20098321
I        7.09053738       9.28207201      13.07390950      -0.15665541       0.52825723      -0.00669632      -0.69815525       0.34217077      -0.66301019
I       13.30457941      13.60789860      22.91862868       0.03863062       0.10033218       0.08079027      -0.98793208      -2.75992412       2.07237935
I       -0.03981024      12.93873864      16.65421064       0.05560591      -0.06658612      -0.08571229       4.53608708       1.32768090      -1.11622158
I        6.68389537      12.62368382      16.62399123      -0.11543008       0.04674771      -0.21435958      -0.93988692       1.99893725       3.01823821
I        6.42924219      13.05847439      23.20394691       0.12051600       0.23446664       0.12931246      -2.16333987      -1.55994437       0.22769558
N       15.60094435      16.07976807       4.33144201      -1.24263295       0.72578861      -0.73730748      -0.64359083      -1.03235448       0.35470766
C       16.61713075      15.09111565       3.96757497       0.89214756      -1.27464576      -0.95392922       0.34507685       0.91516213       0.89322038
H       17.28591031      15.51036344       3.17544357      -0.47556597       0.04362889       0.43470419       0.09017533      -0.07933613      -0.00264830
H       16.17226149      14.16805475       3.50286065       0.13952679       0.63511072       0.67660810      -0.16003677      -0.14872912      -0.05930790
H       17.28024226      14.84461794       4.82611406      -0.50657551       0.11634880      -0.21321778      -0.16312482      -0.12894405      -0.16441246
C       16.27478843      17.42849179       4.44633986      -0.72802687       0.00127089       0.54099544       0.90406680       0.75193373       0.65435425
H       16.61127969      17.72272019       3.45196052       0.34402426      -0.20034056      -0.16972231      -0.28591842      -0.07324477      -0.14515142
H       17.10813829      17.37286619       5.17555102      -0.23406012      -0.21278540      -0.41657657       0.00836227      -0.12703855      -0.01243567
H       15.59628041      18.22920935       4.77204123      -0.22170154      -0.34709567       0.09710325       0.18842958       0.03706733       0.16425345
H       15.01672923      15.79397690       5.16812262       0.55935289       0.31864113       0.17490031      -0.02409212       0.01350380       0.17734022
H       14.81202640      16.09598515       3.59210461       1.23227270       0.16557476       0.55909749       0.13407778       0.13529700      -0.01138913
Cs       9.33463638      23.07903130       8.99463882       0.16468768       0.20722361       0.09019030       1.39257673      -4.59666100       0.43815018
N        9.63845329      16.88044812       9.99362618      -1.29532891       1.24043669       2.06309500      -0.47710430      -0.60517747       0.19117434
C        9.22290193      15.81877015       9.08233855      -0.26120198      -1.40964245      -0.08178303      -0.96276863       0.30029088       0.99365251
H        9.67068037      15.83180734       8.12232133       1.22228226       0.65136587      -1.11423663       0.09768141       0.15028745      -0.22079928
H        8.18718218      15.97370579       8.85785419      -0.92924242      -0.10987192       0.00364017       0.06977461      -0.25619914      -0.11095770
H        9.38728591      14.75571135       9.39685890      -0.06897607       0.84073239       0.73337236      -0.21278465       0.20827399      -0.34442134
C       10.91049848      16.69559172      10.75645896       0.09775149      -0.77396428       0.67718528      -0.64915597      -0.26344653      -0.59267090
H       10.81777994      15.72014507      11.30489342       0.30186082       0.49263132      -0.60502436      -0.11578590       0.03019657      -0.24669512
H       11.14956726      17.45383433      11.55617537      -0.60265866      -0.18416028      -0.93908957      -0.01625166       0.04303174       0.06484056
H       11.68464616      16.70104741       9.98046569       0.22860974      -0.24916596       0.24728853      -0.04731877       0.01956198       0.03012094
H        8.78882262      17.07543286      10.65117290       1.19975733      -0.55327644      -0.30176073       0.29981330      -0.10620753      -0.10418639
H        9.67151562      17.80775452       9.55014036       0.09579555       0.12186997      -0.63962771       0.04432291       0.15432774       0.04659579
Cs      16.53419960      23.41604971       3.12394563      -0.08386377      -0.00906750       0.06095469       3.94511594      -1.86679137      -1.76217661
Pb       6.62786135      19.74110024       6.15306355      -0.04272075       0.06902138       0.27081899      -0.98074209       1.18427845       3.72274695
Pb      13.42093462      20.04252661       6.61776321      -0.17979625      -0.19952487      -0.15708020      -1.27574995      -2.18468526       1.26379373
Pb       6.47282060      20.10596715       0.01466725       0.38540661      -0.00795794      -0.01116937      -4.93782634       4.26950168      -0.18663248
Pb      13.26675999      20.26263712      -0.33575263      -0.15133607      -0.06466551       0.38546729       2.23773352      -0.32232248       2.94235625
I        9.65541341      20.41994807       5.84927097       0.36831008       0.15871375       0.11503663       1.44887012       2.84221910       5.36549427
I       16.32887598      19.87512868       7.50582833       0.32946442       0.20130467      -0.08950143       1.00856204       1.97305446      -0.06876413
I       13.23312790      16.39380975       7.05237277       0.17135607       0.04320918      -0.01794510       0.94813298       1.37669187       0.83201548
I       13.93933849      23.08927011       6.45561853       0.00506175      -0.00904399      -0.07146982       1.80914445       1.62513076      -1.81183166
I       16.29540817      19.82100619      -0.31511293       0.01294292      -0.05028142      -0.11970201       1.73839500      -0.38620037      -0.00679443
I        9.96752127      21.45828830      12.68468914       0.02693603      -0.15057322       0.04626386       2.46213919      -4.03635896       1.38781750
I       14.09598265      22.63306749      12.66003301      -0.01248344       0.44105284      -0.01442796      -4.34967271      -1.64767340      -0.82000220
I       13.71495312      16.57838465       0.60056708      -0.00823148       0.26087850      -0.03114039      -1.55876543      -4.08149813       3.06644506
I       20.31487487      18.97679000      10.09586105      -0.20132893       0.06770378      -0.04456762      -0.67354129      -1.90128962       0.30625530
I        7.15325250      19.93729115       3.15340428      -0.10449875       0.22070414      -0.36582104      -0.19148922       3.13990579       0.03804172
I       13.76186891      20.64019449       3.14127879      -0.13524884      -0.05880149      -0.05011194      -0.12053710      -2.25928305       1.62189647
I       12.99385368      20.30197023       9.59296710      -0.19863688       0.00021360       0.11056953      -0.77590718      -1.49410303      -1.21007673
N       16.63211678      17.50064739      17.46720706      -0.52093424       1.00270208       1.76607738       0.91552491      -1.31701441       0.90131073
C       16.67144705      16.04827690      17.65831727       1.11438404       0.05055797       1.33893113       0.43323424      -0.42318376       0.16042771
H       15.77417021      15.66636668      18.17077872       0.08002448       0.32661560       0.03291987      -0.13488967      -0.13921095       0.11638305
H       17.60294234      15.90259293      18.29326983      -0.87785521      -0.51874991      -0.76113354      -0.11438380      -0.13494937       0.00432129
H       16.73054673      15.64885336      16.69380475       0.32167581      -1.11581108      -1.56778444      -0.02838637       0.18205581      -0.20698389
C       15.34872277      18.07877749      16.96541934       0.70477477      -0.70465227      -0.41310474      -0.42392924      -0.01634736      -0.77489026
H       15.18700633      17.81244848      15.92392087       0.04539107      -0.22547258      -0.21265518      -0.14897068       0.06972937      -0.02859821
H       15.52539120      19.13713105      17.02994216      -0.51961026       0.78368998       0.08123580       0.12434820      -0.06101394       0.12831481
H       14.59246587      17.66081116      17.63949870      -0.24837292       0.33725307      -0.16130781       0.05201254       0.43104477      -0.07482718
H       17.52814996      17.94390599      17.09855176      -0.64889572      -0.35013711      -0.10667695      -0.00653972      -0.24730385       0.31516393
H       16.57593699      17.82906588      18.46326535       0.74817642       0.35360570      -0.20004946      -0.04214076      -0.15995462       0.15686223
Cs      10.14927494      23.00157584      23.11045798      -0.11748913      -0.02850580      -0.01923213      -1.58733085      -0.30040235       0.33301352
N       11.00445154      16.72071655      22.94544950      -0.05978114       0.03494276      -0.76832378       0.03653486       1.95387335       0.15459820
C       11.36332543      16.61023039      24.36658610      -2.44977998       1.48615504       1.03949302      -0.34587138      -0.64238660      -0.67783757
H       10.74440174      17.37507633      24.93168714       0.62005748      -0.62702254      -0.51737880      -0.14184674       0.16876904       0.10538519
H       12.38071673      16.80924262      24.54387256       1.63787654       0.27409868       0.05251584      -0.32326678      -0.06679711      -0.00499121
H       11.11284691      15.64526121      24.76738035      -0.23883152      -0.77040199       0.04761882      -0.10479943      -0.18291645       0.26245120
C        9.50919640      16.68666847      22.64846596       0.71520667      -1.29704713       0.77245367      -0.27525638      -0.54477846       0.24617782
H        9.31443527      16.75477594      21.57841379       0.05102385       0.67225648      -0.15121039       0.18726350       0.18411240       0.16697103
H        9.04573527      17.42384640      23.31659015      -0.15479895      -0.06262675      -0.38648796      -0.01362788       0.00181216       0.33149886
H        9.19876169      15.65250593      22.89029949      -0.19547525       0.36427683       0.31183687      -0.12530761      -0.16908497       0.17889805
H       11.50235265      15.92317782      22.50415794      -0.11472124       0.18426489      -0.46549243       0.33994955      -0.13916175       0.09690318
H       11.38804501      17.61644291      22.56680386       0.13934751      -0.27081619       0.05815153       0.12732005      -0.00304485       0.03213007
N       16.88498913      23.55847351      17.88397133       1.49224882       0.63111823      -0.12873504       0.15079121       0.25083417      -0.86393375
C       16.98331491      24.49298010      16.65930961      -0.83988444      -1.20756780      -0.14164096       0.59086610       0.72391811       0.96331222
H       17.15591724      23.82203290      15.76990272       0.42500171       0.65762707       0.74951631      -0.02916548      -0.07529650       0.03651660
H       17.69294456      25.33071766      16.80062059      -0.07707415      -0.54691538      -0.00741597       0.07343285       0.18061982       0.17531274
H       15.96469254      24.86877055      16.51311518      -0.03219164       0.23999469       0.03917417      -0.11718109      -0.01937089       0.12095850
C       16.21844857      22.27762314      17.62043788      -0.64495711      -0.18651902      -3.15471916       0.57494392      -1.34698766       0.38254903