520
Lattice="25.681518328562223 -0.20044675009145216 0.14580762066374803 -0.16006541225099408 25.918343497943294 0.11854832824987697 0.1305425368098253 0.07985752915759209 26.049005521819744" Properties=species:S:1:pos:R:3:forces:R:3:momenta:R:3 energy=-1953.533935546875 stress="-9.669447172200309e-05 1.2644685739360284e-05 0.00016840662283357233 1.2644685739360284e-05 0.0008984655723907053 0.00033081654692068696 0.00016840662283357233 0.00033081654692068696 0.00021546898642554882" pbc="T T T"
Cs       9.91195625       9.56903596       3.35121476       0.02012072       0.20943845       0.13152241      -3.22623315      -3.89102256      -3.24250262
Cs       3.23477437      16.03389142       9.26684240      -0.01471705      -0.03649640       0.19709791       1.16570793       2.82954895      -0.25558889
Cs       3.46132987       9.51063724      10.08756345       0.03494931       0.08006635       0.02794881       2.34157178       1.43167328       1.78704040
N        9.18254195      15.55430447       2.94305349       0.64053073      -0.40945314       0.33989193       0.47031057       0.06577548      -0.06069490
C        9.32893313      16.89761146       3.64630696      -0.91628046      -2.24827791       2.53107952       0.23846409       0.56829247      -0.49729368
H       10.04316586      16.86265066       4.51282413      -0.19655320      -0.47365513      -0.72793133      -0.24285972       0.46204073      -0.06064194
H        8.37781618      17.18981413       4.10769318      -0.18686660       0.04665601      -0.45915704       0.18004848      -0.00245873       0.03606496
H        9.69626007      17.54265159       2.95036263       0.84557546       2.26208647      -2.09886463       0.04152876       0.04167644       0.07100008
C        8.81431975      14.42919251       3.88448393       1.21323775       0.68119075      -0.20518313      -0.14381434       0.44081629       0.29066803
H        7.85483517      14.65770436       4.29617108      -0.70214458       0.43862077       0.65953072       0.15554054       0.07984204      -0.05468132
H        9.61186626      14.37602906       4.62380104      -0.05304479      -0.06616497       0.29599021      -0.03669189       0.08714383       0.18916355
H        8.69317576      13.49204411       3.36795271       0.25295497      -0.47603912      -0.59009161      -0.03130523      -0.11393038      -0.01043372
H       10.11690094      15.40381332       2.44099570      -1.31648848      -0.26302395       0.46058705       0.07214626       0.22218141      -0.01718135
H        8.39790523      15.52037042       2.23693425       0.51200941       0.71108138      -0.16644529      -0.34706488      -0.09609942       0.21613140
Pb       0.26605078      12.93097136       6.35108389      -0.02122359      -0.27105974       0.33859020       3.94932798       2.04920997      -0.45854190
Pb       6.55877825      12.77009082       6.96282489       0.24431966       0.05371532      -0.15300882      -1.05587828       3.20702302       3.47288634
Pb      -0.24433231      13.01427917       0.30172919      -0.01645359       0.04307391      -0.39762420       1.94828083      -0.57566917      -0.83877819
Pb       6.08251610      13.03561813       0.43503062       0.07476531      -0.13819838       0.05252776      -5.44186204       1.09271353      -1.45909184
I        3.62200957      12.63710099       7.43964432      -0.41330713       0.16011987       0.11392676      -3.02735560      -1.73468505       1.30537296
I        9.71653851      11.65191375       6.86052989       0.10146774       0.12971151      -0.22298019       0.21721782       2.18983254      -1.09557745
I        5.94737104       9.72543463       6.71148756       0.01709669      -0.32035650      -0.01054697       1.46561291       3.25151589       2.52713756
I        6.41705910      16.11811738       7.21722595       0.07509177       0.03683193      -0.00974626      -1.50395539      -0.11587545       2.68909128
I        9.39134095      12.80461564       0.39354042      -0.00773703      -0.16923029      -0.10023094       2.73301226      -0.26630076       0.09266135
I        3.15830856      13.21118823      12.68308137       0.01172775       0.08742862      -0.11285361       2.38429738      -0.09605066      -2.05462142
I        6.31733420      16.27122870      12.01859536      -0.03906505       0.04754040       0.12369580      -0.96557859       0.44199968      -3.44720173
I        5.49840525       9.87407011      -0.11586321       0.22503201      -0.10862498       0.02973795       1.02115589      -0.96764378      -1.47260965
I       12.54745874      12.31465258      10.04447375       0.06990057       0.26277214      -0.00830934       1.34267072       1.17229875       1.36934589
I        0.08982583      12.31893658       3.29753081       0.00961577      -0.02514970      -0.01931780      -3.57432655       0.44981357       4.71508911
I        5.72789155      12.37036224       3.50460534      -0.02025099      -0.07141233       0.02036516      -1.01366107       0.23542464      -3.48047172
I        7.28240697      12.55666202      10.14746990      -0.01853280      -0.00054340      -0.25230387      -0.42430254       0.22773136      -0.53087485
Cs      10.07814084       9.36264140      15.84481977       0.03901575       0.01957861       0.02360395       1.07593497       2.09849509       2.78107884
Cs       3.17309564      16.17650029      22.53495525      -0.10913105       0.15786641       0.13678226      -1.66371568       1.18708115      -1.06630230
Cs       3.20693776      10.40329990      23.04285969      -0.02825428      -0.04901134      -0.04856176       0.86868758      -0.94284657      -1.55917300
N        9.47597666      15.82937291      16.54746350       2.27622988      -0.03517991      -1.15582208       0.78028395       0.19049340       0.10765883
C        8.22011622      16.21328165      15.90156548      -0.47448551      -0.31312506      -1.03771810      -0.03695265      -0.15484459      -0.02714455
H        7.67934386      16.77969001      16.68284367      -0.27989116      -0.04745647      -0.62608192       0.42606080       0.24676786      -0.04398489
H        7.65104125      15.30126126      15.52739665       0.53289131       1.01642655       0.55705797      -0.01672820       0.00059467      -0.13498296
H        8.52607816      16.85118298      15.02168377      -0.69007880      -0.33577059       0.71507339      -0.12674768      -0.10739956      -0.12715635
C       10.27813382      17.13426618      16.95271559      -1.89100269      -1.45208696      -1.51070851       0.15890004       0.11381711       0.52779883
H       10.22412849      17.76676887      16.04204835       0.42552831      -0.26511720       0.35517651      -0.15671752       0.31627250      -0.02049305
H       11.26648508      16.79485070      17.21583634       0.39028328       0.31304084       0.40663229       0.08654113       0.38564412       0.09578992
H        9.62103013      17.58894075      17.68227854       0.34413163       0.22344952       0.72852062      -0.34018034      -0.15251660       0.20084937
H       10.09456961      15.27225641      15.88589371      -0.57596630       0.80070539       0.18068269       0.05119090      -0.02507452      -0.12914661
H        9.32695165      15.11338935      17.26366225      -0.19777271       0.08781615       1.16324032       0.39046341      -0.18009290      -0.07978442
Pb      -0.03168988      12.98464904      19.64110043      -0.10121414       0.01543482       0.11938363      -3.89458349       5.33320381       0.16032743
Pb       6.49220812      13.06700928      20.02681006      -0.47311220       0.19218957      -0.19233348      -1.16710445      -1.50280566      -2.17561022
Pb       0.05735919      13.02156322      12.80714216      -0.08955395       0.17430374      -0.00409801      -1.44042486       0.01794471      -0.43840452
Pb       6.42079443      12.94104135      13.03856966      -0.06451168       0.06598804       0.33451004       0.81399247       1.00645382      -1.34632066
I        3.12610070      13.29956515      20.25116110      -0.06774561      -0.08938621      -0.13572907      -0.89359307      -0.95722180       0.49225614
I        9.28754426      13.03724386      19.00539526       0.39595294      -0.02558827      -0.20880840      -0.73891123      -2.30604106      -0.22250648
I        6.23846256      10.07970141      20.01893077      -0.05692394      -0.19555013      -0.03965905       2.45636932      -2.30114546      -2.46121335
I        7.35046665      16.74179022      20.58920230      -0.02858073       0.09263211      -0.11295164      -1.87577929      -1.54325307       2.26931208
I        9.53729446      12.41437313      13.74353868       0.08787930       0.03813569      -0.03186868      -0.74630462       1.37031634       0.08252986
I        3.18707007      13.30735471      25.97629010      -0.39964145       0.11645941      -0.03707987       1.64706929       1.38926898      -3.45138279
I        6.92408246      16.37295851      26.43639085      -0.01073602       0.07326877      -0.26543809       2.01095765      -1.21632576      -1.00753926
I        5.80885707       9.91417208      13.32336315       0.08505524      -0.10314108      -0.04274731       1.33309981       0.78194475      -5.04921069
I       12.63217023      13.50381505      23.05918843       0.15999020      -0.25524921      -0.21640077       0.40309510       2.59720407      -0.65957611
I       -0.03867726      12.56422979      16.48056314       0.02791924       0.01027114      -0.12530141       0.77524601      -1.64369254       1.45778617
I        5.68093933      13.03436983      16.50293581       0.06261266      -0.13492504       0.03822335       0.89566414      -0.28893069      -1.78843408
I        6.14884674      13.91752403      23.09518410       0.09863124      -0.17482400       0.09480616      -3.96407151       0.17797391       1.15290933
N       15.72842250      16.78653479       4.47035625       0.52675591      -0.07627166       1.32107859      -0.29605565      -0.88357319       0.47904035
C       16.35144274      16.19173601       3.29080124      -0.84498306      -1.36725675      -2.29715421      -0.57015405      -0.07040591      -0.06309227
H       16.83490432      15.20490659       3.47836870       0.32302798       0.80662083       0.62589457       0.17069464       0.09973444       0.11139227
H       16.96053049      16.83279741       2.61371858      -0.18699861      -0.00674370       0.85573199       0.15468591       0.05337542       0.00204226
H       15.48749734      15.82059464       2.67853119       0.35190103       0.51180047       0.06537817       0.24233295       0.11212069      -0.11809198
C       14.90182835      15.81003309       5.20057105      -1.66728899      -0.86895514       0.89643329      -0.00736687       0.00621527      -0.25594888
H       13.84333317      15.72538806       4.76162621       1.25139223       0.35256324       0.37927002      -0.20662469      -0.05399735      -0.08901811
H       14.83026713      16.04372485       6.31515503       0.07564629       0.00478842      -1.25055357       0.03654150      -0.09581839       0.02016174
H       15.35450739      14.80318911       5.11713740       0.17371173       0.37157559      -0.07224936       0.00381541      -0.13021556      -0.38289016
H       15.18328557      17.64659534       4.31130743      -0.56971386       0.32481159      -0.82269796       0.19731559      -0.01747956       0.14462958
H       16.39381067      17.18619686       5.14641114       0.74075186      -0.06318750       0.05247003      -0.10170089       0.00801776       0.17298138
Cs       9.65744823      22.69064241       9.93030215       0.14552289      -0.17389182       0.00215037       3.19808879       1.02225141       1.50720841
Cs       9.58208323      16.28050834      10.28239586      -0.06353846       0.01197401      -0.05018782      -1.69634989      -1.92899912      -0.57699431
N       16.13203104      22.51217738       4.22026357      -1.36709948      -1.10199246       2.24592495       0.27436842       1.26507927       0.85836000
C       15.80879321      21.80297569       2.98626047       1.61439620      -1.33352055      -0.88996969      -0.40107153       0.02099115      -0.31223670
H       15.80560908      22.50761359       2.14174314      -0.09527625      -0.14741103       0.08408076       0.22467891       0.07782611      -0.16857064
H       14.86666569      21.28953715       3.15452991      -0.53022740       0.02484620      -0.30528734       0.09507356       0.02053245      -0.21693413
H       16.57129958      20.98001300       2.80856045      -0.61393008       0.93048125       0.13178391      -0.08989482       0.07022847      -0.33102502
C       15.18458668      23.71181874       4.36708427       2.17994789      -0.88480441       1.76553047      -1.16727893       0.18689711       0.21691086
H       15.25952764      23.89619734       5.46120191      -0.22520178       0.59303889      -0.53456441       0.00966910       0.18890570      -0.30853595
H       14.16916023      23.43848782       4.14085036      -0.41816720      -0.27109415      -0.53309954      -0.05513410       0.07432866      -0.27805722
H       15.65948154      24.45796672       3.74370892      -0.38391537       0.64670866      -0.24299910       0.03783417      -0.15980262      -0.08511563
H       17.13866910      22.71345398       4.44823664      -0.41491855       0.26475517      -0.55055066      -0.04217727      -0.24173456       0.22546837
H       15.88925637      21.81610210       5.03503603       0.38901471       1.02199047      -1.11981367       0.30393466      -0.00685721      -0.07798238
Pb       5.93754017      19.30627050       6.77761551       0.00151923       0.02489269      -0.30691466       4.66933840       0.35607914       1.50360894
Pb      12.41934105      18.99915427       6.83470194       0.16247091      -0.00538465       0.03397620      -5.91218362      -1.56581170      -2.69083954
Pb       6.43888538      19.55942608      -0.39983298       0.00157629       0.13265778       0.20898354      -2.13549718      -1.09960959       0.23699702
Pb      12.97032183      19.52147547       0.19512880      -0.35009410      -0.02488425      -0.04710568       3.61454387       5.01053513       0.22830125
I        9.40932670      19.41860964       7.40504734      -0.20686459      -0.00427771       0.13132948      -1.24765186      -0.24811141      -2.08862631
I       15.95005793      19.48280104       6.70665134      -0.05851320       0.09189216       0.12956015      -1.27784227      -1.46993965      -1.28236084
I       11.53007432      15.98920819       7.02693785       0.13837757      -0.12976305       0.15137025       0.45523112       2.28819356      -2.20230481
I       13.08545359      23.03164840       7.77991016      -0.05952394       0.13037809      -0.14257858       0.95605415       0.42969551       2.85870273
I       15.91343094      18.93693500      -0.08135737       0.26462086       0.00772584      -0.02846797       0.87431900       1.46673206       2.42710022
I        9.45896796      19.59326372      12.66838751       0.03807734       0.10634979       0.00801548       0.35878530      -0.83422911       0.72331638
I       13.01799394      23.13042315      12.94615062       0.18898245      -0.42974479      -0.04050199       0.97021582      -3.05551217      -0.65417375
I       12.56580467      16.12723138      -0.09805367      -0.09217533       0.14540056       0.24524500      -1.29952197      -0.00189070       0.66013141
I       18.79278688      19.97723857      10.30105223       0.04101994      -0.05635130      -0.22225077       1.82243882       1.75965914       0.85228765
I        5.78007774      19.50878948       3.05806967       0.11329324       0.21262877       0.03329102      -0.64406281      -0.58729326       3.43976502
I       13.01242168      18.95215170       3.64315224      -0.16626140       0.13606435      -0.14615578       0.93535271       3.66768120      -2.07792512
I       12.84369258      20.07751654       9.85169857       0.04605126      -0.19276682       0.32139747       1.60344007       2.05052149       2.66299591
N       16.01663058      16.95967583      16.19529364      -0.25362732       1.09290073       0.50315910       0.53924367       0.25003941      -0.43303616
C       16.84303923      15.77012021      16.47519328       1.84963945       0.25983703      -0.60407091      -0.24242796       0.33090584       0.71838110
H       16.54959312      15.24867937      17.37537493      -0.34523977       0.05970411       0.48783202       0.31028710       0.02244673      -0.14256455
H       17.88555172      16.16011159      16.54326027      -0.41907066      -0.44041063       0.29114354       0.18499707      -0.07219167       0.27845751
H       16.84981490      15.06693890      15.64232934      -0.37686577      -0.00570557      -0.33072291       0.07998760       0.36650504       0.06419578
C       14.60685775      16.63819155      15.87472821       0.97248986       1.55874434      -4.02815580       0.22283660      -0.69835313      -0.27468788
H       13.93549256      17.48778995      15.65825680       0.72718241       0.28433447      -0.01307697      -0.07777709      -0.03126452       0.02471990
H       14.10563131      16.11480948      16.56095430      -1.31854653      -2.29674657       3.40518509      -0.03149689       0.25295835      -0.14579825
H       14.63550145      16.00596417      14.95306640      -0.03897535       0.34698869       0.40999813       0.24184885      -0.12538103      -0.05499966
H       16.43855212      17.58387571      15.45138133      -0.20990588      -0.63265422      -0.27113481      -0.00690692      -0.17459375      -0.06485550
H       16.14424176      17.61104884      16.99649925      -0.52807530      -0.26592295       0.23712688       0.21575107       0.03224249       0.02874936
Cs       9.62133569      23.56818228      22.46752711      -0.02950285      -0.10436045       0.09626094      -2.29863865       2.60902807      -0.93011517
Cs       9.68344418      15.52203903      23.46814251      -0.13800870       0.23644200      -0.00856140      -0.16243513       1.36961146       1.06378509
Cs      16.08234471      21.97167792      16.23717771      -0.00194759       0.11497776       0.15416413       4.07706109       1.12327528      -1.14923566
Pb       6.95837666      19.66364617      19.55547306      -0.07658219       0.08000112       0.12338081       1.64471099      -0.13903182       2.14476177
Pb      13.40534167      19.06773235      20.01773232       0.09530347       0.66693584       0.07196778       0.77093273       6.62058799      -1.57696713
Pb       6.18359341      19.62402904      12.77117115       0.14385194      -0.15264511       0.30243043       0.74386718       2.14363259      -0.62675263
Pb      13.11121873      20.02719096      13.12368288      -0.59859395      -0.06240621       0.06349634      -0.27790268      -2.76995193       0.62216258
I        9.87296622      20.65416271      19.85778232       0.07816964      -0.09015343       0.01754246      -0.90625792      -2.97167049      -1.50501394
I       16.66269244      18.81718492      20.18927589      -0.50840211      -0.10088882       0.01769685      -0.21027750       0.76946366       0.91363733
I       12.48265583      16.39233336      19.62666032      -0.09768229      -0.56736545       0.06150947       3.07456370      -0.27053698       2.99118149
I       14.37812998      22.50882253      19.83490551       0.11715942      -0.47185862       0.12418106      -0.07411262       1.21076735       0.14413558
I       15.91682963      19.08312760      13.32004060       0.16026995      -0.01325558      -0.02817374      -1.99273293      -0.87851541       2.75532311
I        9.64701252      19.92647836      25.66534533       0.08331887      -0.04650618      -0.10539258       0.39781641       2.14437610       1.12705605
I       12.94104543      22.77162294      25.81461570       0.16319880       0.04253563      -0.03437431       0.38381129      -4.37493730      -0.64631210
I       11.83485896      16.11136023      13.26090080       0.08007052      -0.05228049       0.03838133      -0.96540413       0.26089038       0.50689274
I       20.28550444      19.09146763      22.94235714      -0.04625973      -0.14006513       0.20106644      -1.85782801      -0.00976037      -1.34372752
I        6.48704396      19.52345831      16.33094846      -0.05953358       0.01698779       0.00667309      -1.62906513      -2.74446061      -1.30182218
I       12.69273310      20.45174074      16.64547979       0.02914971      -0.06909276      -0.23136604      -1.14323157      -0.24066658       2.26340550
I       13.17467122      18.60571025      23.06348687      -0.04171895       0.19198743      -0.12287870       4.32978406       0.17630391       0.36246773
N        9.24807105      21.37954326       4.63859365      -0.67491445      -0.19084805      -0.47843379       0.06955889      -0.31947305      -0.04271880
C       10.36287534      22.26678860       5.01078514      -1.82570932       0.75006523      -0.73235521       0.54386695      -0.69024247      -0.29678003
H       10.15662303      23.23089922       4.54333856       0.43490681       0.12825654      -0.51223943       0.49249508      -0.09279092       0.00885877
H       11.28164570      21.81511789       4.76440520       1.23720542      -0.55827396      -0.55839282       0.39640461      -0.04726199       0.25180771
H       10.32113207      22.48296672       6.02178199       0.01049226       0.15251120       2.44173916      -0.29803568      -0.07695713      -0.26538800
C        9.41766675      21.07422759       3.20118930      -1.17157960       0.50044112      -0.39699878       0.80149330       0.06224197       0.11477709
H        8.43442141      20.77691002       2.77424991       0.45594833      -0.05374138       0.20302808       0.00885473      -0.18024186       0.00951763
H       10.10258532      20.24834758       3.22944951       0.77143206      -0.41023625      -0.90780460       0.06500261      -0.34688720      -0.07056760
H        9.75201574      21.99974761       2.66178371       0.04812525      -0.82060716       0.42937019       0.04261569       0.34100218      -0.13355133
H        8.28413922      21.75210253       4.78332843       0.36874452       0.47678018       0.27296741      -0.09227088       0.12818719      -0.25048259
H        9.23873334      20.48867043       5.21063912       0.27429692       0.21423940       0.07498704      -0.18372612       0.27185984      -0.17849376
Cs       2.78023131       4.17457500       9.30314820       0.07217860      -0.20434507       0.08850100      -1.07614313       2.62950697      -2.66744838
Cs       3.30565846      23.01430075      10.00683229       0.16685522       0.03117737      -0.19246972       0.20969643      -4.55940915      -1.30453364
Cs       9.69319345       2.70023668       3.27274265      -0.07402336       0.13414539      -0.01499653       0.27244834      -2.60805699       0.29972377
Pb       0.22977197       0.49072131       6.52787954       0.05405853      -0.26638060       0.00278524      -1.00756950      -1.28012152      -0.10795167
Pb       6.90301082      -0.02231223       6.42940997      -0.12839925      -0.03159942       0.00075729       2.86767632      -1.56746269      -3.08326247
Pb       0.10480984      -0.08521553       0.09598203      -0.02514908      -0.05884617      -0.13895816       0.50749800       3.30234637      -0.13555765
Pb       6.66142285       0.03697167       0.09125914      -0.02891818      -0.13301908      -0.19010674       4.24657973       3.33486542       0.73609811
I        3.47067019       0.38330350       6.85507499       0.08996844      -0.01447847      -0.03470356      -0.45960849      -1.17120291      -1.74158192
I        9.87267180      25.89631904       5.85030182      -0.08275411      -0.12533905       0.25095862       2.25670010      -0.57286873       1.48931806
I        5.86474493      22.46585151       6.27051221       0.06163170       0.13128992      -0.02058955       1.89775336       0.72969223       0.39624478
I        6.53338504       3.08134420       6.05673224       0.07830937       0.07962568       0.09817517       0.09189247      -0.42009622      -0.36537139
I        9.56990769      25.23465509       0.35877102       0.04780817       0.10966618      -0.11088028      -3.55111579       3.80303926       2.53909770
I        3.32140903       0.82951576      12.93048570       0.33661876       0.05055604      -0.01023593      -2.48111902       0.44157372       0.09142143
I        6.72374160       3.20150596      12.31541141      -0.01469627       0.34282410       0.08833410       1.99844937       0.10732925       1.08718636
I        5.59873169      22.91961762      -0.04845702       0.05069412      -0.14954528       0.15502906       0.52844611      -0.59325884       4.62357184
I       13.95459788       0.57931026      10.04806688      -0.16077932       0.00381546      -0.25648059      -0.00526298      -0.22237318       1.09672484
I       -0.20844181      25.52609525       3.31922934       0.24987745       0.06178738       0.11392506       1.47961666      -1.04328488      -2.45541952
I        6.70189371       0.17118890       3.15562813      -0.23014133      -0.05844847       0.09119660       0.52293146      -1.77046278      -2.48339141
I        6.78116820      24.89008200       9.92863745      -0.21205911       0.13790681      -0.28640729       0.83330361       1.80005647       1.24002964
Cs       9.11404618      22.47818132      16.04503497       0.30734452      -0.05962200      -0.20255200       1.38885020      -0.90106543      -0.93229565
N        2.79248232       3.58386679      22.60356061      -0.09442935      -1.33124154      -1.22133929       0.12431417      -0.56191641       0.68656579
C        3.34550823       2.67644900      21.54114548      -0.30309209      -1.18723913       0.00008249      -0.75335584       0.01261644      -0.72935021
H        4.23435669       3.01609882      21.01581213       0.23486657       0.64509259       0.22232366       0.17486346      -0.04587656      -0.19733862
H        2.56647546       2.46210789      20.77650594       0.12223969       0.34083660       0.38656185      -0.11865134      -0.07585065      -0.13870331
H        3.60158538       1.70000022      22.01193469      -0.16007943       0.49284501      -0.01384451       0.00241267       0.18738745       0.15714047
C        1.42615593       3.18807920      22.98265179      -0.97273180       0.94588993       0.66336407      -0.53813384       1.79367410      -0.23232258
H        1.46708046       2.26816300      23.57954762      -0.12783198      -0.31196206      -0.56509831       0.05966770       0.11765682      -0.09073092
H        0.74267013       3.23258876      22.10196923       0.52950444      -0.47897366       0.39556326       0.05808900       0.01796764      -0.20052653
H        1.09967163       3.96373393      23.69060307      -0.26555331      -0.05941253      -0.08831244       0.12423088      -0.31971138      -0.03051090
H        2.80670159       4.54705014      22.35100942      -0.02475321       1.48726658      -0.88727537      -0.05969044      -0.03726192      -0.09915543
H        3.32782751       3.57426166      23.44258415       1.17562644      -0.39972205       1.13427326      -0.04628733      -0.10103990       0.15069093
Cs       3.12530150      22.47832547      23.25226694      -0.06683958       0.12196096      -0.09820028      -1.29292752       1.07884880      -2.27634318
Cs       9.73506802       2.66347860      16.65049117       0.14652938       0.02814270       0.12523447      -2.39007167      -1.53700389       2.86132192
Pb       0.19273931      -0.05659433      19.25310064       0.12315369      -0.03988253       0.21362966       1.20027480      -2.93464819      -1.33137458
Pb       6.59153255       0.05675680      19.14541647      -0.03537242      -0.01659816      -0.06627433      -3.36365597       1.08887855      -1.87144727
Pb       0.45466324       0.28458467      12.91314989      -0.20789142       0.06555072       0.03720635      -1.17448114       2.47792775       1.33790500
Pb       7.21039144       0.24439894      12.73507282      -0.30794665      -0.25696391       0.03630527       2.73323872       7.95535711      -1.42019024
I        3.53210568       0.38203113      18.57000742       0.04801816      -0.17276862       0.03320367       0.44633513       1.29255134      -3.70054596
I       10.20162411      25.14462106      18.90317458       0.03853111       0.05866638       0.05252719      -0.10858785      -1.32261581      -1.22405701
I        6.52633349      22.97796964      18.33943273      -0.37959857      -0.09849864       0.38380709      -0.56738224      -0.25878420       1.62370537
I        7.03125764       3.40504832      18.81434141      -0.27754955       0.09553639       0.13178624       0.37317418      -4.88579256      -2.54758495
I        9.92281253      25.32036821      12.79997455       0.11799709       0.06240803       0.07250955       0.48681330      -2.76561675      -2.17010476
I        3.30058102       0.40336837      25.79791876       0.27885287       0.04237355       0.15897546      -2.09325239      -3.18981048      -1.10815069
I        6.72933149       3.21802006      25.75021708      -0.11776966       0.25958146       0.10811124       1.35544985       0.33740387      -0.17151343
I        6.09852911      22.83056843      13.40650893      -0.08968131      -0.14088144      -0.05800498       1.98494502       2.43940627       0.32418318
I       12.92992303      -0.02852443      22.84466691      -0.01106349       0.06269734      -0.24104984       0.58774976       3.50897415      -3.11980845
I        0.18476402      26.16240569      16.32355928       0.09326567       0.14198396      -0.18261986       2.11667924       0.95529760       4.89197946
I        7.00199468       0.19967819      15.91321487      -0.02234257       0.14854703      -0.16962019       0.34769691       0.75258543       1.69490931