560
Lattice="26.08434477166446 0.1963384408055397 0.041671162058113435 0.15850938448397692 25.92887820426359 -0.016789607524805097 0.0242321781143012 -0.05968531556612311 26.110689679882757" Properties=species:S:1:pos:R:3:forces:R:3:momenta:R:3 energy=-2163.64892578125 stress="0.0019794553518295284 0.00026392328436486423 -0.00040373683441430325 0.00026392328436486423 0.0007437721360474824 -0.0007637143135070801 -0.00040373683441430325 -0.0007637143135070801 0.0011220412561669944" pbc="T T T"
Cs       9.11365871      10.03069072       3.15453056      -0.01405126      -0.20980184       0.19435176      -1.46258319       0.25087329       3.27685514
N        2.47546273      16.44977028      10.20975212      -0.62633167      -0.62224507       0.83178845      -0.54293846       0.67826965      -0.42289220
C        2.46812865      15.81232036       8.85499972      -3.29183511       1.66335047       1.20892559      -0.45276519      -1.74049362      -0.52366093
H        3.06021339      14.97232326       8.80247491       1.54371945      -1.97337938       0.01568298       0.03359537      -0.04217297      -0.28720080
H        2.75336725      16.59650419       8.21801624       0.64527429       0.93474935      -1.35546476      -0.15286238       0.23642853       0.25987613
H        1.37510309      15.60962616       8.69089602       0.93552441      -0.22908103      -0.29619041      -0.25102204       0.22256462       0.06332911
C        3.77443886      17.07636040      10.62024576      -0.31613849       0.51378998       0.90333220       0.14781948       0.07932283       0.22505577
H        4.08886405      17.82548755       9.87470328      -0.38701909       0.03490745       0.10799558      -0.07794677       0.29582935       0.21773655
H        4.55811810      16.31018150      10.60505780      -0.08819220      -0.14115356       0.40089549      -0.07397712       0.05600162       0.05224723
H        3.57493222      17.56898683      11.64059300       0.63211732      -0.69719112      -1.26893261      -0.04535873       0.11493306       0.19787284
H        2.09987395      15.74585057      10.89886700       0.77226972       0.23642864      -0.15570306      -0.21016219      -0.01285024      -0.15268395
H        1.70580521      17.14836436      10.25433804       0.25589415       0.35102569      -0.32325105       0.11665983       0.00377123      -0.05425298
Cs       2.98954961      10.37160477       9.76570739       0.11880252       0.00187916       0.03207086       0.30931856      -0.89427882      -0.84756242
N       10.98730093      16.61783254       2.89501595      -1.21820055      -0.06917040      -0.57250535      -0.59572963      -0.51867366       0.06393622
C        9.94001322      17.73988680       2.76152634       0.30573040      -0.22092717       1.15167045       0.16230349       0.08149314       0.59646863
H       10.56207028      18.61716455       3.09978513      -1.03803418      -0.28728847      -0.55873357       0.23229301       0.00849361       0.04354865
H        9.07746633      17.56998648       3.45464696       0.89997575      -0.16058239      -0.02121940      -0.00325869      -0.04950638       0.20076253
H        9.46683610      17.83601564       1.77594097       0.67747971      -0.21830796      -0.19940822      -0.20096209       0.08493783      -0.19057416
C       10.60151772      15.16303612       2.75587129      -2.17090482       0.40832695       1.78267221      -0.66180310       0.31497769       0.01785302
H        9.82293583      14.87228601       3.58923765       1.43363905       0.63481600      -1.43550247       0.16164288       0.12080118      -0.12629242
H       11.52486692      14.63764977       2.88527965       0.52050366      -0.72164651       0.14459734       0.03790492      -0.01186896      -0.05300717
H       10.17176258      14.93388612       1.78509627      -0.11476921       0.31077485      -0.30952101       0.25171298       0.06123646       0.23638878
H       11.36959423      16.72412111       3.87328736       0.53303560       0.02130925      -0.72651875       0.18223884      -0.07270884       0.10539512
H       11.72562575      16.73325977       2.14137925       0.00467759       0.25459730       0.82668083       0.03046270      -0.03758945       0.18394794
Pb       0.41360509      12.92471508       6.15346465      -0.04792618       0.15900647       0.22788372      -2.38137560      -1.14065347       2.07722004
Pb       6.96960418      13.52029103       6.55178501      -0.25006523      -0.02938361      -0.25318331      -5.68601365      -2.02461378      -3.74711859
Pb       0.72556908      12.87849130      -0.08657698      -0.01204285       0.08750117      -0.05861751      -1.11815777      -0.44441270      -1.15802464
Pb       6.81386414      12.91821756      -0.27901927       0.01355270       0.11759635       0.46246331      -3.26431620       0.63894783       1.44925357
I        3.58402903      12.92291725       6.65111545      -0.03049084      -0.03666715      -0.00191784      -1.11162475       0.99850642       2.00418820
I       10.12712064      12.98021249       6.32851894       0.00898849      -0.14955517      -0.07781816       0.65931532      -0.72093405       4.05011068
I        6.32740082      10.01942749       5.95356428      -0.05213215      -0.17129977       0.16023449       2.07646130       1.71108182      -1.09088115
I        6.65653251      16.72166305       6.82011097       0.02192831       0.06933539      -0.08264914       1.06535738       2.57743020       2.53875172
I       10.17933109      12.06141900       0.41762771       0.01208387       0.18048540      -0.36580452       0.20805695       0.24232031      -0.19427582
I        3.11471208      13.17019643      13.10251495       0.17349693      -0.13139390      -0.01064430       1.03097753       0.67955620       1.44640029
I        7.07965152      16.24935217      13.33937686       0.03467233       0.24190595       0.09427838      -1.30863884      -0.23587789      -1.65538905
I        5.74590163       9.78904742       0.01537031       0.06431341      -0.00457325       0.01824283       0.13886093      -0.89505384       0.06294469
I       12.94600438      13.64341539       9.66777555       0.21391856      -0.01630838      -0.00672935       0.31551611      -1.22915961      -0.69238813
I        1.16305112      12.82779740       3.19514769      -0.14437999      -0.19948176      -0.28861487      -1.01129853      -2.73223728      -0.54414120
I        6.77978413      13.03511456       3.11882357      -0.04461025      -0.06342160      -0.00621886       1.74165074      -2.14727963       0.18688179
I        6.38212898      12.97590977       9.48409014      -0.17177418       0.21847127       0.33293406      -1.71034453      -2.07000893       0.48339658
Cs       8.94866143       9.67737096      16.57035326       0.13480520       0.07326803      -0.07658714       0.98801428      -2.06561358      -0.32079655
Cs       3.75603983      16.54857173      22.91819117      -0.03616711       0.01600002       0.10759117      -4.84717220       1.21229375       0.79758885
Cs       3.60290439       9.91836798      22.60997510      -0.06306569      -0.11349919       0.03772340      -0.53288013      -0.26474710      -1.27529481
Cs      10.30497282      16.03926417      16.64483268      -0.00061969      -0.02203383      -0.00484088       0.59140290      -1.49167304       0.07643520
Pb       0.00267217      12.94959086      19.90761260      -0.15856545       0.23434090      -0.26365242       3.12269718       1.50505065      -0.59843493
Pb       6.12649882      12.86983683      19.71660968       0.29282412      -0.05610891      -0.16700077       1.67007205      -1.38802260      -4.55853557
Pb      -0.17996538      12.74076253      13.14443045       0.23110565      -0.21778150       0.07385136      -2.05307802      -2.75270997       3.05971986
Pb       6.68477768      13.20163837      13.31429361      -0.05360477      -0.07504822      -0.05843141       0.09102461      -0.57080839       1.11809103
I        3.23672348      13.69033649      19.70391403      -0.06188629      -0.24512201       0.47791744      -2.56919179       1.67315794       0.78377505
I       10.13743069      11.52213389      19.62419228       0.04200982       0.33301153      -0.00638918       0.87767613       2.11273285       2.44433995
I        5.85110305       9.76282419      19.08421585      -0.09577385       0.01782375      -0.04127407      -0.70131588      -2.45270162       0.66658436
I        7.59426446      15.62879215      19.59590602      -0.00828624       0.37725505       0.05999542       0.59261738      -0.55527723       1.37075022
I       10.00083248      12.50151410      13.28192006      -0.11143097       0.08290332       0.06737836      -0.42864776      -2.04884603       1.70593997
I        3.77161020      13.15554300      24.79207432      -0.39320415       0.16181638       0.23692064       1.77367907       0.54639638       1.77653450
I        7.08840444      16.20359551      25.98385062      -0.02028212      -0.13531194      -0.27811548       0.15842929      -1.80165297      -0.39783370
I        6.33513896      10.03048524      13.51781013      -0.05716316      -0.45478219      -0.05104165      -1.01713107      -1.59119833      -1.42433709
I       13.78867703      12.45181102      22.87600162      -0.23430412      -0.12156433      -0.09115515       2.02100865      -2.84148373       0.92470449
I       -0.00808446      11.75193750      16.50752536       0.06558044       0.08737921      -0.12487838      -0.60753254       0.59430090       0.72722846
I        6.75345843      13.06350959      16.40267535       0.02050754       0.00825775      -0.00034670       0.14212641      -1.61466083      -0.98516833
I        6.70725438      12.32999967      22.83622068       0.26154782      -0.05654704      -0.36616757       0.15635509       0.96486830       2.41085200
Cs      16.96662611      16.41486944       3.05447134      -0.18916209       0.04855762      -0.03591044      -1.76065043       2.89987495      -0.50118517
Cs      11.01179088      23.19919562       9.69408619      -0.04619091      -0.27316106      -0.23195880      -0.40052803      -1.78463962       1.68169042
N        9.97634047      15.41790918       9.16125383      -1.28308292       0.24746614      -0.31224897       0.35973834       0.68002204       0.34375883
C       10.37475101      16.29703772       8.03410163      -1.18327149       2.22338173       1.61555630       0.71944976       0.34409137       0.52962868
H        9.45105620      16.83152891       7.80268328       0.05987294       0.26355551      -0.38904756       0.15365195      -0.07831971       0.07262179
H       10.64884414      15.68720694       7.26048941       0.78008234      -1.56490670      -2.24627282       0.06396667       0.14105778       0.12353429
H       11.17505120      17.04444920       8.21672609      -0.21176468      -0.54280714       0.59720992       0.07585386       0.14309551      -0.07786642
C        9.35946640      16.13744058      10.34684950      -0.10609979      -0.38321385      -0.85869660      -0.16325530      -0.67860351      -0.60035821
H       10.04564102      16.87902241      10.68608641       1.14576593       0.11522526       0.85966399       0.03925335      -0.01397750       0.30206170
H        9.08122649      15.31092253      11.03466158      -0.06862373       0.92399898       0.07236892      -0.16157422      -0.04739440      -0.11537843
H        8.54743860      16.80932968       9.99126353      -0.21707885      -1.00616619      -0.06089776       0.09331560       0.03211882       0.07644011
H       10.79803128      14.80207971       9.33277781       0.20330396      -0.25013340       0.73988078       0.24681718      -0.07619643       0.08115303
H        9.17638966      14.81839397       8.81575942       0.89332902       0.12461716       0.04424310       0.14293480      -0.05475274       0.05316789
Cs      16.01304554      23.09174355       2.77100677       0.16818939      -0.22727853      -0.03391493      -2.08295892       4.14045100       1.20931056
Pb       6.81763958      20.15635910       6.40724193      -0.02517064       0.04800765       0.19105928      -0.11372883      -0.15099397      -1.89534482
Pb      13.44491083      19.79807880       6.09950058      -0.01296085       0.06643447       0.08049005      -0.39604381       0.78083576       3.29219925
Pb       6.74424995      19.90227577       0.02997647      -0.47302240      -0.41887929      -0.23503194       2.65238142      -3.15406432      -4.04684394
Pb      13.04145378      19.97736828      -0.36040330       0.11288641      -0.14845981      -0.11851980       1.01631463       2.53079845      -4.05681345
I       10.32296213      21.24151329       6.32224272      -0.11955834      -0.37832320       0.23173278      -1.39208312      -1.61793981       2.53729592
I       16.58592405      19.06114223       6.08509318      -0.10671368       0.04916642      -0.02710593      -0.32088273      -0.46462562       0.57996304
I       13.47971477      16.66206083       5.31574624       0.00780149      -0.14125382       0.21518244       3.15210041       2.91271650      -0.60686737
I       13.65187150      22.98350245       5.73845827       0.20996000       0.01947198       0.15600473      -3.73568255      -0.85991190       0.14546558
I       16.27195733      18.98907651      -0.13650591       0.22553953       0.18601311       0.07422081       2.09492635      -1.06989197       0.42463552
I       10.32084751      20.44882425      12.52916678      -0.42100017       0.12788010      -0.00060533      -0.73042292      -0.65335857       2.75808060
I       14.03405572      22.78807260      12.49560442      -0.01441629      -0.09913802      -0.02751318       1.11414136      -1.66945422      -0.71667925
I       13.63796891      15.80815295       0.66537753      -0.07481890       0.20677490      -0.14102061      -1.02717118       1.77722183      -2.12857343
I       18.80772813      19.76730514       9.96439147       0.01126459      -0.01804336      -0.30284820      -1.30444606      -2.45840214      -1.41924710
I        6.54442192      19.88965327       3.05091743       0.10313107       0.17211470       0.30603429      -0.39773790       2.62153236      -0.32342657
I       13.34170020      20.02550328       2.62086490       0.01624159       0.04675299       0.51155388      -0.84601206       1.96987295      -0.34580998
I       13.87257649      19.71610197       9.38327463      -0.20939070       0.09750295      -0.16420928       0.80390353       0.52380069      -1.44012009
N       15.70071354      16.60570610      15.65163377      -1.99618313      -0.26863502       0.08687253       0.48783952      -0.00469623       0.54603564
C       16.24930958      16.87914707      17.02798102       1.75219602       0.94487360      -0.34708404      -0.74154807       0.46588054      -0.59996323
H       15.76493952      16.32373039      17.87170468       0.18722676       0.19960687      -0.90944572      -0.05025593      -0.27786339       0.08109703
H       16.22247318      17.99274047      17.18096204      -0.43596505      -0.81923653       0.15063473      -0.01945091      -0.08692051      -0.12162366
H       17.38697519      16.70861063      16.97197204      -1.52610867      -0.28941568       0.14663438       0.02875309       0.13447301       0.10075819
C       15.95846605      15.23061955      15.15642173       1.13095856      -0.45050433       0.21924901      -0.07537789       1.06314130      -0.09500109
H       15.46658485      14.50906583      15.82425914      -0.10530761       0.12337305      -0.16584621      -0.00519273       0.15675615      -0.10252090
H       17.05042375      15.06813366      15.24243477      -0.31492835       0.01368776      -0.03285070      -0.03923870       0.44361805       0.17961049
H       15.69702970      15.08188490      14.08872933      -0.21164029       0.28750743       0.44525064       0.12442647      -0.04911105       0.20295451
H       16.04700120      17.29856058      14.96557035       0.49826028       0.25296047      -0.21327836      -0.09990343       0.01958169       0.22836841
H       14.63905036      16.76814508      15.55307574       1.11926647       0.00071454       0.53671829      -0.13202336      -0.18346902       0.12646200
N       10.15525496      23.13398327      22.27255073       0.53581488       0.16527348       0.05757332       0.56632883      -0.90392627      -1.07691135
C        9.62940015      22.24260075      21.25933010      -1.52625684      -1.03709016       0.06937027       0.69604633       0.15031087      -0.15062537
H       10.31399870      21.99896312      20.44719448       0.29352056       0.56946473      -0.20959656       0.15579715      -0.15947346      -0.05760806
H        8.66308822      22.66719903      20.94358468       0.33148240      -0.25896274      -0.38641270      -0.16497152      -0.00882994      -0.17017669
H        9.45430456      21.27903997      21.75774723      -0.26810422       0.07627945      -0.00651613       0.43413728       0.34938418       0.14402108
C       11.19886932      22.46475455      23.06987407       0.38167041       0.63292792      -0.75358145       0.31462241       0.52490880      -0.90802921
H       10.75587305      21.54410561      23.37381738      -0.17322326      -0.74616114       0.76452352      -0.10274710      -0.07816004       0.05433211
H       11.52676825      23.13604719      23.86182709      -0.05613606      -0.03430606       0.30606573      -0.02798353       0.01236289      -0.21690599
H       12.02432387      22.25657877      22.37859403       0.15471097      -0.01189394       0.07149857       0.10883882      -0.21748947       0.03631622
H        9.39084763      23.50683489      22.82895904      -0.42829758      -0.01137984       0.55735077      -0.27799072       0.30913752       0.10896661
H       10.51822435      23.95663073      21.80532928       0.54772176       0.87019052      -0.43718607       0.04119710       0.14678250      -0.02721557
N        9.54508689      15.64971728      23.09049372       0.26936324      -0.41045884      -0.85727991      -0.08496684      -0.24620140      -0.14725709
C       10.28330505      14.49441088      22.46532856      -1.61215971      -0.43286572       0.72920248      -1.00350249       0.45315028       0.49214804
H       10.98158831      14.87351280      21.75417773       0.88360725       0.43677742      -0.36551435       0.12262196      -0.13106462      -0.12626313
H        9.51634737      13.94116688      21.91312217       0.08500577      -0.27816171       0.01649641       0.17038248      -0.43272538      -0.28375892
H       10.70662929      13.89443151      23.27275979       0.32034577      -0.03190530      -0.01062858       0.15795800       0.15089484      -0.22345715
C       10.46402276      16.58320503      23.76632489       0.87645958      -0.52310196       0.09477437       0.53634927      -0.29296595      -0.70966574
H        9.84526711      17.23586720      24.34165853      -0.22387711       0.84687952       0.46653764      -0.08197433      -0.10463138       0.15497755
H       11.11444700      17.07938768      23.04820157      -0.21088144       0.31644389      -0.36441873      -0.12461002      -0.00497266       0.04626110
H       11.16250085      16.02567335      24.41312019      -0.40077392      -0.11339304       0.10105166      -0.04143921      -0.10610083       0.18343555
H        8.80173327      15.35990201      23.76470014       0.11971717      -0.09481634      -0.19804258       0.09096665      -0.10841684       0.12571035
H        9.07159152      16.07669799      22.27097851      -0.16827757       0.33161664       0.40472472       0.26446031      -0.01636047      -0.02605368
N       16.63363863      22.48147283      17.09342039      -2.45914066      -0.67379712       0.24522050      -0.22800154       0.12796795       0.01259750
C       15.86247832      23.53712051      16.35954202      -1.63669614      -0.96116892       0.29735214       0.11584263       0.19215860      -0.36637333
H       16.13012223      24.52621066      16.64869064       0.45086777       0.83495804       0.49338775       0.13965338      -0.31439255       0.25068678
H       14.74557515      23.37816474      16.54771311       1.21514609       0.15406400      -0.13061514       0.06867832       0.29221796      -0.12901563
H       16.03997363      23.39045081      15.30880502       0.23616531       0.08406573      -0.63287816      -0.00579270       0.19107345      -0.03625433
C       16.71156214      21.22887490      16.23391229       0.88201172       2.25069178      -1.05053945      -0.33380734       0.41893602      -1.12567716
H       16.52792179      20.37417826      16.81294858      -0.07786196      -1.27368268       0.96018382       0.02927633       0.06836327      -0.02883337
H       17.78144731      21.29783195      15.87759133      -1.18063043      -0.67308413      -0.40757071       0.01876750      -0.31365404      -0.34075133
H       15.89475115      21.35030551      15.47568003       1.02525373      -0.30601290       0.26611964       0.06578259      -0.02841899      -0.11690426
H       16.07453265      22.22514828      17.96262265       0.86200603       0.50075145      -0.63235510       0.03738463       0.34595836       0.15991183
H       17.55021591      22.82851774      17.38108294       0.62430422       0.11524293       0.50782766       0.17306371       0.02404583       0.00838144
Pb       6.53691972      18.95741209      19.37860912       0.58914012       0.06160505       0.07268247      -1.82814155       0.98834807      -0.26830481
Pb      13.34745192      19.27296686      19.20335724      -0.09274960      -0.02537911       0.13565680      -1.25059113       0.78574877      -0.30767254
Pb       6.48251715      19.74814361      13.10982891       0.00707744      -0.24403073      -0.06909545       1.46081491       6.57166577       1.21048410
Pb      13.11272696      19.40678176      12.74220905       0.21839539       0.11061768      -0.00460922       4.63740210      -1.68226200      -2.93596285
I       10.20403487      19.55390360      18.95227487      -0.05586189      -0.25213676      -0.07806537       3.54014253       0.26998473      -1.45620352
I       16.54253625      19.17496864      19.80144740       0.19143825       0.12038333       0.07510002       1.54961305       1.42913629       3.66405109
I       13.43573306      15.97998014      19.78917613      -0.22934415       0.14010771      -0.05558627       1.03892102       0.40635277      -0.46533496
I       13.42593963      22.80049741      19.46424503       0.12227723      -0.32915186      -0.04286290      -3.89909741      -1.03706533      -0.04483578
I       16.28744347      18.61891827      12.65102667       0.22574757      -0.06776033       0.16618994      -1.79481751       0.02069551       0.60855681
I        9.76501887      19.80605104      25.90398886       0.27087048       0.28462018      -0.07868778       2.37706178       0.19130385       0.12150682
I       13.34456985      22.98803792      25.92268781       0.13965845      -0.02128416       0.10915530      -1.68293959      -1.18832184      -0.63183912
I       12.42529156      16.52390650      13.14264112      -0.04783855      -0.43890141       0.07432506       0.73346817       0.08716139      -1.11906896
I       19.22781478      20.72326161      22.93445225       0.00541368      -0.16437140      -0.18482660      -3.13161962      -2.27009543       1.97965627
I        7.00399032      19.88202585      16.30755290       0.05294938      -0.20155945      -0.13847202       0.35422615      -1.84803571       0.47965567
I       12.90477462      19.32081533      15.98003635       0.06120388       0.00371429       0.09672127      -1.38416049       0.36100471       1.09651086
I       13.92301121      19.34595817      22.69379808      -0.15975994       0.07262962      -0.16673996      -1.53405651      -1.30047076      -1.29696999
Cs       9.62591611      22.53232536       3.09300350      -0.02281965       0.17533478      -0.17855236       0.32621761      -1.84618289      -1.10828490
Cs       3.57699632       3.19967200       9.56386529      -0.12971817       0.08151312       0.23199292      -3.81931044      -0.04305992      -0.89348612
N        2.83316662      23.07492809       9.39603128       0.45490987       0.27446947       0.70364331      -0.77433974      -0.25638283       0.05039047
C        3.17118750      21.77552830      10.05085233      -1.03601368      -0.34833788       0.20451944      -0.81770627       0.73933099      -0.69221612
H        2.23410402      21.21028029      10.34209127       0.88479129       0.74847253       0.05309632       0.21450563      -0.09881781      -0.12741645
H        3.86904101      22.00128634      10.87274610      -0.28257823      -0.29418497      -0.03438549      -0.17426980       0.09309961      -0.10926009
H        3.64609902      21.19658644       9.27236899       0.45823908      -0.43009578      -0.14101189       0.05155305      -0.17003466       0.12310413
C        4.07217546      23.74133482       8.94258667       0.47230275       2.02459753       0.03807643       0.69125691      -0.90806001      -0.25321523
H        3.81693757      24.57067886       8.16190610       0.43656378      -1.08682677       1.39292789       0.09817027      -0.08639819      -0.02932388
H        4.74897931      23.03158554       8.47611992      -0.09171976      -0.46472317      -0.24768801      -0.18878502      -0.06071583       0.16163553
H        4.60171737      24.11394489       9.84656510      -0.32344496       0.21770986      -0.52091882      -0.22137230       0.08223821      -0.02205530
H        2.21584582      23.65729357      10.01240497       0.42363831      -0.19051259      -0.46027538       0.07103009      -0.14403184      -0.16057709
H        2.39031271      22.93497506       8.51330656      -1.52010665      -0.58824088      -0.86577099      -0.16039083       0.16462681       0.04666152
N        9.47179188       3.83183058       2.90154772      -0.05094336      -1.39338793       1.68712065       1.28056114      -0.02663014      -0.29157672
C        8.69270644       3.09302765       4.02587677       0.37145342       1.36640775      -0.77718549      -0.37272306      -0.20081918       0.87325197
H        8.34434105       2.17194027       3.56809379       0.13292491      -0.47443953       0.32216451       0.04124177       0.04642871      -0.04669378
H        7.83096834       3.70092920       4.33850788       0.17731459       0.05769369      -0.15542134      -0.10660584       0.06261266      -0.12189254
H        9.43706089       3.06135794       4.83036243      -0.24803591      -0.60771327       0.12822733       0.12381283       0.03588980      -0.27947974
C       10.63605926       2.99251530       2.49529640       1.18421647       0.04963586       0.87664291       0.57839561       0.50061778       0.14695369
H       10.98719557       3.21901635       1.46895089       0.04819100       0.26597635       0.57749990       0.15132345      -0.16537642      -0.10403435
H       10.40324905       1.92510733       2.53535752      -0.64745522      -0.09848050      -0.18686411      -0.23110580       0.06523441       0.11164644
H       11.40244933       3.08315983       3.32374612      -0.33334252       0.35322434      -1.02578761       0.13844332       0.16004082      -0.09502417
H        9.69241695       4.74517772       3.29210541       0.58495818       0.47217920       0.01817265      -0.16098214      -0.12040288      -0.08760511
H        8.87999463       3.99677953       2.12629102      -1.22791121       0.19725240      -1.43744242      -0.11103439       0.04407979      -0.19653926
Pb      -0.10091685       0.11970509       6.47305689       0.34323390       0.17666837      -0.05669271       1.05903499      -2.11004679       1.66471080
Pb       7.03939211       0.46532046       6.94650072      -0.07467201       0.01065528      -0.68426805       4.37436384       2.56267953       0.34726408
Pb      -0.15222046       0.10982628       0.07629823       0.05995604       0.00382653      -0.19649058       1.34600542       1.26413071       0.70173390
Pb       6.34987842      -0.03525666      -0.13479834      -0.13414144       0.05273987       0.06218985       3.64965559      -1.02908623       1.10699867
I        3.21802110       0.85622068       6.79820623       0.03373658       0.06325630      -0.33641384      -1.65631180       0.95777214      -0.39413876
I       10.05391197      25.61458049       5.81376489      -0.06349341       0.08103232       0.15832307      -2.20590207       0.71466829       1.06508967
I        6.43195113      23.38364373       5.74501076       0.07366167      -0.17195809       0.06844330      -1.25061538       0.34259718       0.24048901
I        6.84910250       3.69322261       7.89471809       0.10669969      -0.04586913      -0.30257779       0.73597753      -1.83294365      -2.30133234
I        9.78748400      25.92136774       0.15507209      -0.03361101      -0.14578100      -0.02246150       2.57720827       0.01512673       0.78490946
I        3.88391827       0.24491954      12.54055245      -0.70550357       0.08188202      -0.01229789       4.91250238       0.80350028      -2.65176577
I        6.89655144       2.94165582      12.44631562      -0.09988661       0.41123333      -0.03411401      -0.80110099       0.15672191      -2.04383140
I        5.52084938      22.70722024       0.11723378       0.06927376       0.34933238       0.02130258      -1.10194289      -2.40237418      -1.51534178
I       13.18503343       0.38639846       9.53742208      -0.03409274      -0.08929535       0.34248635      -1.65118359      -0.29095235       4.68916339
I       -0.12852234      26.70029916       3.21459691       0.04422937      -0.13655886       0.04353243       0.90242925      -1.18120619      -3.00196879
I        6.01237448       0.19668663       2.91190235      -0.11573421       0.01992659      -0.07877390      -1.50945790      -1.47285577       1.95227275