600
Lattice="26.097072932354713 -0.03920586407419938 0.026094336714127184 -0.07528261878139839 26.238386678238534 0.12204989690726681 0.0002561977948207103 0.09619520988374237 26.20518939822707" Properties=species:S:1:pos:R:3:forces:R:3:momenta:R:3 energy=-2375.35595703125 stress="0.001402994734235108 -0.0003726947761606425 4.645244553103112e-05 -0.0003726947761606425 0.0018931829836219551 -8.528090984327717e-05 4.645244553103112e-05 -8.528090984327717e-05 0.0013831312535330655" pbc="T T T"
Cs      10.27997283      10.15773980       3.03408206      -0.05199522       0.00121032       0.18499883      -2.41948225      -0.82109099      -1.51993714
Cs       3.46963736      17.02590355      11.03725364      -0.03197924      -0.00810101      -0.15566622       1.08786446       2.67515001       0.91899520
N        4.01983383      10.37784009      10.03120414      -0.17899170       1.72308414       0.78600587       0.10066983       0.37338287       0.87890726
C        3.59169895       9.08535537      10.60210290       0.14837320      -0.62579352      -1.58675015       0.29576113      -0.48069305       0.82017919
H        2.55859481       9.06062661      10.91305123      -0.59586122       0.43075604       0.16650910      -0.03491544       0.17886206       0.14065262
H        4.23133815       8.85726813      11.45824870       0.18871397      -0.39156557      -0.26898045       0.15635487      -0.09746285      -0.16892820
H        3.65903216       8.46629779       9.67765376       0.17126656      -0.69544958       0.99488299      -0.12493057      -0.16976211      -0.06075686
C        3.17039521      10.95756689       8.90440804      -0.11910480      -1.62835399       0.32439470       0.27957338      -0.06041069      -0.14490470
H        3.55101609      11.93667227       8.62880603      -0.07962942       0.21926465      -0.02601982       0.09224911      -0.45195910       0.14725567
H        2.09893066      10.91337368       9.19355685       0.44304744       0.50147943       0.31064033       0.05173356      -0.06104559       0.04743638
H        3.21647016      10.23239380       8.09425615       0.39088677       0.03044119      -0.40775959      -0.04598058       0.38663366       0.08506045
H        5.04987003      10.32632021       9.85430622      -0.48955943       0.15810224      -0.48449788       0.25283845      -0.08967672      -0.30203757
H        3.92709745      11.07760005      10.78849783       0.16052219       0.28009922       0.24667125      -0.26937100      -0.08459061      -0.09600332
Cs       9.31078565      16.66395871       3.35228699       0.09372134       0.03157018       0.10110053      -0.59560884      -6.13780637      -2.19668409
Pb      -0.27127609      13.20999326       6.58512644      -0.02595432       0.14875432      -0.00675755       0.41999568       2.15231603       1.92910108
Pb       6.67567855      13.28700821       6.76143806       0.04922149      -0.07674075       0.07506786      -2.30291431      -1.95241038       0.83702328
Pb       0.03732647      13.02628351       0.18531886       0.01412646       0.03735304      -0.00358642       1.67090700       0.37639041       1.93009326
Pb       6.87870555      12.88199107       0.18987031      -0.28745193      -0.03047601      -0.03072321      -1.63616718       0.46800737      -0.11078553
I        3.69428674      14.15290042       6.62753864       0.08683469      -0.02688816       0.09461744       1.50337034       0.29157107      -2.94230887
I       10.09179383      11.96529161       6.53502247      -0.42384252      -0.02900287       0.06736870       0.51121606      -1.17276221       1.56283319
I        6.65137869       9.91646248       7.11106485      -0.00241945      -0.06652647      -0.00231156      -2.15450982       3.24375748       0.47708749
I        7.65225076      16.38907694       7.17002062      -0.00600302      -0.02348842      -0.13659654      -0.10569050       5.45405216      -2.69095723
I        9.79178349      11.98989139      -0.06742729       0.27426522       0.07292746      -0.19585159      -0.16300928       1.28830077      -0.37079078
I        3.58145386      13.27394585      12.40829202       0.08283301       0.03155064      -0.02523864       1.96254201      -0.68413883       1.28942609
I        6.39644688      16.88082061      13.20823717      -0.06729113       0.00724865      -0.29761015      -0.47224822       0.28079469      -1.20069142
I        5.98896385       9.78086307       0.50501919       0.04663564      -0.13674989      -0.03576867       2.80548519      -0.47670676      -1.05167855
I       12.30984494      13.43586165       9.87326437      -0.12248595      -0.15116941      -0.02142597      -1.82173889       2.53456200      -1.20739785
I        0.25300355      13.40788617       3.26471743      -0.04085313      -0.01422197       0.02512669      -1.69426871       0.72313299       0.98530607
I        7.29537956      13.13340876       3.26914824       0.05970940       0.00375596       0.15315443      -0.34613605      -0.58407973      -0.76379850
I        7.27725840      13.08463489      10.03169372       0.00291718       0.05891851      -0.14350865       0.65687991       1.35053785       0.07102329
Cs       9.72787054       9.77657694      16.10166292      -0.01664137      -0.05805320      -0.00279655      -0.52091262       1.13157887      -1.54269301
N        3.64221776      16.08821266      23.98608982       0.79749457       0.91850450      -0.64755383       0.21180266       0.13126432       0.01014011
C        2.21503017      16.41780241      23.45661141       1.89569443      -1.29165504      -0.13121960      -0.57604766      -0.19992847       0.12308511
H        1.98247424      15.63251302      22.67708990      -0.01963580       0.78100418       0.80702579      -0.14170596      -0.02036036       0.30332758
H        2.37347293      17.39008866      22.99315086      -0.60212655       0.28882725      -0.07007539      -0.11670151      -0.02771259       0.02435052
H        1.58788543      16.39142449      24.34947303      -0.43399493       0.14139812      -0.24265053      -0.06681305       0.17575371      -0.18225152
C        4.73638751      16.34453686      22.93903688       0.43576774      -0.31737611       2.15935171       0.33964928       0.47384435      -0.81228433
H        4.87266558      17.40781773      23.01128227       0.20686754       0.83578664      -0.53330858       0.08709925       0.10375286       0.24737639
H        4.39230356      16.01389123      21.99528753      -0.34061472      -0.42557630      -1.16125047       0.03388639       0.26684224       0.05103091
H        5.71575647      15.87079596      23.25102039      -1.03762318       0.12254023      -0.22823833       0.04617916       0.05993618      -0.05808909
H        3.75245749      15.12254587      24.30798969      -0.38094776      -0.51513460       0.43618587       0.16083393      -0.19703391       0.06486159
H        3.89018777      16.74541233      24.78799245      -0.61310311      -0.64788049      -0.40767080      -0.19621625      -0.08098003      -0.23845703
N        3.07271316      10.32550881      22.38200523       0.11646133       0.41015392       0.97021746       0.45346727      -1.37728636       0.43280822
C        4.12521813       9.26387958      22.56953477       1.47257980       1.67332971      -0.17429104       0.97515420      -0.57554951      -0.81459959
H        4.95982898       9.52521924      21.79748228      -1.33832943      -0.81864815       1.07263987       0.09077223       0.15938877      -0.10169947
H        3.59720381       8.35755561      22.41442531      -0.12628134      -1.30736466      -0.35719923       0.18922382      -0.20393477       0.33124187
H        4.58862682       9.27568453      23.59152597      -0.56137631       0.24827333      -0.64743449      -0.30375271      -0.04419957       0.09283715
C        3.72083122      11.70814766      22.46092970      -1.88854457      -1.02457991       1.20758484       0.35444953       0.51960714      -0.42980284
H        3.90980226      12.04691909      21.48077197       1.32896042       0.11263912      -1.18883637       0.14051438       0.22566636      -0.03458046
H        4.47320359      11.59196193      23.26373327      -0.00123898       0.58351734      -0.69740638       0.01363715      -0.24489566       0.16569936
H        2.91067317      12.38404049      22.73705204      -0.01099732       0.11547771       0.61076739      -0.16374848       0.14647445      -0.14154834
H        2.32840394      10.32487922      23.15965650       0.87163279      -0.51354157      -1.26883683      -0.08528620       0.10716141      -0.33585329
H        2.63736500      10.09330925      21.44921891      -0.29103826       0.64142418       0.67139100      -0.21736464       0.42012216      -0.30544538
N        9.78785762      15.52495560      16.15405977      -1.03741687      -1.56872454       0.21428672      -0.99101045      -0.84206852      -0.36239207
C       10.30590644      15.77993084      17.50799877       1.96889280       0.45876899       0.13702404       0.16879836       0.33592963       0.82415742
H       10.69246916      16.80875779      17.40094066       0.35436495      -0.17866255       0.44834987      -0.05641884      -0.03025147      -0.17996479
H       11.16837496      15.05753001      17.73353777      -1.24848154       0.87477163      -0.02223779       0.19225404       0.05836492      -0.30591770
H        9.53035593      15.86661544      18.27054318      -0.20477108      -0.55348232       0.03357324       0.07048722      -0.02084140      -0.03993043
C        8.69704105      16.50624385      15.86136406       0.07124817      -1.92555896       1.33504213      -0.40267909       0.16448234      -0.37119494
H        9.22010796      17.39104914      15.68993168       0.34804000       1.99545883      -0.24436566       0.00866670       0.16275658      -0.07720774
H        8.02831400      16.50278313      16.72272937       0.07024240       0.47549217       0.19917115      -0.07228706       0.25524184      -0.07300830
H        8.11365191      16.17285038      15.04774892      -0.47448599      -0.34062384      -1.29608156      -0.12408993      -0.05687608       0.08840087
H        9.49877980      14.49894813      16.05099894       0.06162755       1.12435934      -0.05055371       0.11879759      -0.34408887       0.09664485
H       10.55043607      15.69562777      15.50297740       0.39473449      -0.18500748      -0.60852702       0.18466100      -0.06887083       0.02908915
Pb      -0.15372939      13.16707789      19.75461920       0.03476848       0.12747383      -0.11281299      -1.54722273       3.74584725      -1.11559955
Pb       6.94597405      12.92955429      19.69311386      -0.11008562       0.26551802      -0.11748711       2.57945844      -1.35737181       1.96933357
Pb      -0.24681625      12.95604306      13.12612681      -0.02392443      -0.15310365      -0.12768564       2.67020923      -1.59021991       1.68483177
Pb       6.69791904      13.31569195      13.18889387      -0.04800754      -0.10017988      -0.04445289       1.11989680      -0.67355211      -1.53554032
I        3.12732234      13.54834575      19.09720049      -0.23649667       0.10963842       0.10925810      -2.75986402       0.37821379      -0.31480393
I        9.93005334      12.51346588      18.97749418      -0.16516509      -0.09586540       0.10661672       2.38013952       4.67996321       1.06134497
I        6.29668294      10.10113922      18.96783339       0.13019478      -0.28157877       0.09506270      -0.83933154      -1.22712945       1.38743023
I        7.03716525      17.21306607      20.00933318      -0.04493249      -0.16661872      -0.02239287      -1.03901757       0.92551785      -3.56464244
I       10.08454738      12.63271282      13.57970733      -0.24754609       0.03768965      -0.00927423       0.74672800      -1.07717300       0.62450733
I        3.42782124      13.38266688      26.33660867      -0.13872716      -0.00917281      -0.07736571      -0.18926526       0.19630341       0.73009941
I        7.50766004      16.24861690      26.09757366      -0.12925135      -0.00301647       0.28098565       3.40318446       0.15714087       0.67819879
I        6.74411341      10.01063102      13.21404226      -0.08441414       0.09788560      -0.02931379      -1.64882514      -2.26205781      -0.43632797
I       12.82585440      13.13872044      23.04786014      -0.11335741      -0.03776704       0.09103925       1.28775319       1.43690485      -0.67913500
I       -1.18263626      13.15411530      16.08300332       0.19414341      -0.03379752       0.42743939      -3.58939845      -0.68335601      -0.31277303
I        6.65953339      13.45778396      16.40939419      -0.06214247      -0.06860499      -0.05969416      -0.26823762      -1.60784066      -1.31804093
I        7.25151526      12.44500561      22.71644574       0.22451237       0.05691892       0.16802823       3.31813600       0.38156488      -0.16424021
N       15.94087406      16.10687518       4.00087849      -0.85023569      -1.39232227       0.30346051       0.14709381      -0.84338790      -0.40200761
C       17.12718648      16.41136166       3.16674837       1.34246535       1.00039270      -0.06613797      -0.33101302      -0.17321863      -0.02630905
H       17.07863173      15.91283783       2.12956607      -0.10031454       0.76394711       1.46958540      -0.09846382       0.01109732       0.02824861
H       18.04711733      16.08710341       3.74999900      -0.85831472       0.05377617      -0.77763255      -0.17885627       0.05159302      -0.16295746
H       17.20091434      17.54423979       3.14840298      -0.07963457      -1.06722384      -0.50933645       0.31607960       0.03467770      -0.03062557
C       14.63062293      16.61546544       3.45067947       0.74525927       1.27924545      -1.63371083      -1.05550498       0.07249896       0.42666095
H       14.57399704      17.74151698       3.43340384       0.34656826      -0.85296679       0.40454388      -0.26295300      -0.27823390      -0.12136661
H       13.78335859      16.20660782       4.01136004       0.08674920      -0.12735583      -0.23384937       0.27693732      -0.01061839      -0.06918538
H       14.70811505      16.33706464       2.35000385      -0.66898422      -0.00486450       1.20473325       0.06592616      -0.19653517      -0.04972263
H       16.11298754      16.34958836       5.02485898      -0.31427982      -0.29784546      -1.08211339       0.08020392      -0.07659140      -0.14128069
H       15.79589565      15.06112383       3.90792199       0.41883729       0.77406657       0.82840058      -0.05261671       0.06334987      -0.27398442
Cs       9.73927349      23.17114795       9.66889896      -0.09481813      -0.14183429      -0.01494126      -0.38545018       2.51040581       1.54168541
Cs       9.81109824      16.86799883      10.48501877      -0.18032775      -0.01818724      -0.25892239      -0.33759174      -1.39252999      -0.88395911
N       16.56348946      23.38996744       4.17080151      -0.66647878      -1.02557833      -0.62127826      -0.08653466      -0.55044037      -0.15752049
C       16.30299863      24.29740624       3.00424964      -1.09336766       1.36423352       1.30025445       0.04818999       0.38402458      -0.08213119
H       16.83314243      23.93716711       2.16305970       1.18393344      -0.26189431      -0.89801051       0.16678591      -0.02833803       0.12832754
H       16.57717892      25.33631029       3.33748051      -0.10149121      -0.72474416      -0.54076734       0.23936569      -0.24875669       0.18766958
H       15.24767368      24.30171006       2.66584842       0.13178837      -0.18818488       0.60624614      -0.01994231      -0.16784624      -0.05730212
C       16.85058505      21.96193396       3.67458141       0.17186554       0.58830118       2.18760712      -0.17123438      -1.55179740      -0.07720472
H       15.95619843      21.69260453       3.18440826      -0.97931924      -0.75532935      -0.89069887      -0.20282288       0.00550950      -0.09576636
H       17.01163363      21.34833457       4.59502609      -0.10455462       0.21904411      -0.67820630       0.04008171      -0.22718486      -0.21057731
H       17.73666295      21.92362577       3.04703848       0.11693908       0.25361195      -0.25029359      -0.04174778       0.10500949       0.05801838
H       15.75920271      23.36598541       4.88036359       0.95467267       0.14643303      -0.78968525      -0.14837285       0.04649932      -0.39121346
H       17.43620869      23.67099179       4.62298599       0.35310345       0.34449939       0.63959294      -0.03078415      -0.30218098      -0.04133276
Pb       6.43938170      19.51630359       6.96828828       0.16686034       0.14530233      -0.29557926       2.60243540      -0.47324460      -1.28505440
Pb      13.08593733      20.04208700       6.62980988      -0.17219328       0.01062065       0.06907536      -0.50450307      -2.88451118      -2.51396460
Pb       6.51905958      19.81144588       0.30691823       0.07355679       0.24874268      -0.00262622      -1.23726084       0.69154778      -0.53130045
Pb      12.84071762      20.13899321       0.03416429       0.00857898       0.00749879      -0.10505708      -3.51869947      -6.46561091       3.70996050
I        9.70018493      20.58418536       6.52580942       0.19904202      -0.10659123       0.15091759      -0.66949679       0.29419982       0.61878986
I       16.50837320      19.21959997       6.84387461      -0.35964144      -0.02088276       0.03012799      -1.35231501      -1.01190176       0.70019410
I       12.50256825      16.51909268       6.79285349      -0.20599351       0.34202905      -0.04315975      -2.90419829       0.83725910       0.68460628
I       13.38309707      23.23126284       6.83889664       0.02014609      -0.20582889      -0.12308577      -1.46686336       1.25345532      -1.04633372
I       15.95357037      19.63712054      -0.03169673       0.04833428       0.00494094       0.11660016       0.31691784       0.87752237       1.54310540
I        9.65677886      19.95452906      12.86862899       0.17580121       0.08248651       0.00822807      -0.39981465       3.29518948      -4.20296715
I       12.69727956      23.02892133      13.75023762       0.00177257      -0.06515446      -0.14455933       0.71481629       4.02981602       1.32958194
I       12.27806003      16.45067343      -0.61185467      -0.02738257      -0.06809810       0.15060957       0.10776413       1.43160412      -1.03011619
I       20.02389337      19.55354021       9.64825802      -0.18968492      -0.46797968       0.65809765      -0.86875931       0.41450604      -1.14718798
I        7.08930109      20.14961172       3.46857467      -0.01605749      -0.26634485      -0.18274080       0.34046867      -1.27085930       2.32246076
I       12.19972381      19.70414093       3.16539229      -0.04146696       0.06822446       0.04211807       3.00504671       3.33452589      -1.90803173
I       12.84992882      19.88969073       9.85156355      -0.13029038       0.02648931      -0.11765818      -2.39835490       2.17149148       2.48468481
N       16.06385196      16.23607144      17.01539655      -0.77230027       0.79143096       1.56975073      -0.20066973      -0.03813956      -0.37889762
C       17.35708752      16.10900796      16.33701694      -0.02394199      -0.18451367      -1.86272793      -0.31538832      -0.42671892      -0.03376659
H       17.63635397      17.04569563      15.82945984       0.00005424      -0.21739843       0.20824789       0.16757353      -0.46045864      -0.07661002
H       17.26185357      15.25855351      15.61522660      -0.08806730       0.65319572      -0.01739201      -0.29962466       0.02057323      -0.02460157
H       18.11182491      15.73245667      17.00778065       0.40305535       0.32004847       0.73967863      -0.25956631      -0.11954568       0.15762806
C       14.76585649      16.58598879      16.28872801       0.74538096       0.05523064       0.76313977      -0.10898877      -0.53842596       0.73624944
H       14.80712858      17.66183281      16.06212946       0.00739400      -0.17583350      -0.20180415      -0.01796635      -0.01056971       0.29267119
H       13.94071771      16.41971214      17.01767613       0.35497347      -0.07616023      -0.55673529       0.07384516      -0.15323124      -0.17227373
H       14.75749706      15.95503453      15.41920856      -0.43047148      -0.29513239      -0.59052406      -0.09316969      -0.10784628       0.24452781
H       16.05449288      16.97928839      17.76488701       0.61818673      -0.55971087      -0.19904789       0.24964309       0.15414463      -0.11418330
H       16.01107967      15.32757923      17.50588594      -0.71295328      -0.08656248       0.37054422      -0.03551387      -0.08768611       0.00923059
Cs       9.48373733      23.92127745      22.52803392      -0.09106720      -0.14779954       0.10078311       0.53980440       1.86868946      -0.50199776
Cs       9.10350590      17.53546420      23.31222625       0.34425141       0.13469473      -0.34458386      -1.26706310       0.66970599       1.10785182
N       15.96458865      23.13315403      15.58298720       0.20508084       0.49509271      -1.94398456       0.34375336      -0.57295775       0.01635407
C       16.67538377      23.86735043      16.64188139      -1.74054291       0.93088679       0.55941452      -0.56438082       0.33549208       0.74228103
H       17.71903100      23.83120713      16.46515137       1.18798919       0.20185067      -0.09899916       0.11528013       0.17145314      -0.30568570
H       16.38656405      23.37533314      17.54868196       0.16885016      -0.49554862       0.84328754      -0.26765209       0.06097009      -0.12552301
H       16.21011871      24.88222058      16.76556814       0.79392581      -0.50164140      -0.49168553       0.11067828      -0.13628029      -0.12102247
C       15.79679767      21.67187244      15.83698307       1.17664364       0.17264795      -1.00925149      -1.03495031       0.14630859       0.25290765
H       15.37002541      21.49640736      16.81802741      -0.35043618      -0.04640774       0.11112835      -0.13408826      -0.19768857      -0.07193787
H       16.82878067      21.31015880      15.78352260      -0.02321769      -0.47362156       0.32078218      -0.14777097       0.17775754      -0.47183126
H       15.28329979      21.26684657      14.95387834      -0.28777126      -0.16626352       0.47469053       0.03209101       0.07928760      -0.17480912
H       16.44288127      23.28372901      14.61491295      -0.51462558      -0.31238632       1.42259454       0.03029578       0.08467807      -0.08870326
H       15.04105268      23.55172322      15.46762238      -0.61794335       0.16062355      -0.13423085       0.09532349      -0.35398901      -0.08067947
Pb       6.08900811      20.14861732      20.24014497      -0.02709296       0.04907916      -0.15580659      -2.36340124       2.85336073      -1.47543557
Pb      12.39647454      19.98368093      19.58947104       0.31659077      -0.21184284       0.23906089       1.16478509       1.50961244       2.03893516
Pb       6.66505173      20.25890860      13.52481409      -0.20769585      -0.03962577       0.06640863      -3.30125832      -0.56349146      -1.94935968
Pb      12.83448128      19.88006236      13.07165240       0.16884404       0.08789246      -0.00295138       0.78783673      -1.16387669      -1.39573891
I        9.31147432      20.48555310      20.30535376       0.19691127       0.19337924      -0.03154739      -2.57941887       0.37710757      -0.63179566
I       15.86651647      19.29214343      19.51397707       0.05806115      -0.02289764      -0.00097336      -0.69914707      -2.34307382      -0.52967667
I       12.58626854      16.66617717      20.83839666      -0.21574826       0.05963557      -0.28369994       0.31783817      -1.06218530       2.85152085
I       13.21435546      22.97853083      19.38959005      -0.08970468       0.01955030       0.09900278       0.00048438      -0.49517393      -3.54241364
I       16.23759168      20.17925801      12.38155383      -0.02821695      -0.10339397       0.09319161       0.23778490      -1.48388921      -1.70076234
I        9.56732835      21.07485204      25.60137539       0.16016332      -0.10569988       0.09892063      -1.74610551       1.93768302       1.49215630
I       12.99750158      23.50342079      26.61655235       0.01145439      -0.10196409      -0.18898840      -2.44423737       0.85607062      -0.55164025
I       12.28299640      16.24264023      12.97847887       0.10925334       0.30232428       0.27355057      -0.74976546       4.24294248       3.58239700
I       19.04826827      18.38970543      23.10857674      -0.01822143       0.32226384       0.58166896       0.19092704      -0.37808145       5.05889583
I        6.30914900      20.67900018      16.79664564       0.17888707       0.14845555      -0.06467477      -0.84300567       0.14336888       0.05072055
I       12.22917879      19.70130736      16.45544729      -0.09480963      -0.00184080       0.04371379      -1.18326252      -0.03216877       1.74367408
I       13.35117007      19.67674742      23.04998688      -0.16833362       0.16839483       0.02342169       0.89157591      -1.60858207       0.74346546
Cs       9.96297398      23.31282357       3.01060868      -0.19677874      -0.26255022       0.02018975      -1.76026653      -0.29909505      -0.05632780
Cs       2.75853848       3.57844390       9.40029675       0.04700203       0.08770713       0.20094272       2.91541639       0.12608949      -0.18645842
Cs       3.81760340      22.97181672       9.97920414       0.10515794       0.00621374       0.09654072       2.47035318      -1.77331782      -1.24816494
Cs       9.39454951       3.36976820       3.49401440       0.18050892      -0.09746092      -0.12297287       0.08851747      -1.61226185      -1.08491275
Pb       0.33552102      -0.37483735       6.82947163       0.08337131       0.14234030      -0.02671736      -3.49106322       3.20727280      -2.34588426
Pb       6.27287368       0.14722521       6.17089192       0.35972558      -0.04799374       0.10919998      -1.32811803      -1.40064599       0.04104403
Pb      -0.01939021       0.06414616      -0.11508646      -0.07801891       0.02202878       0.26775726       1.91488927      -2.02326192      -0.61720265
Pb       6.37875048       0.07793734      -0.22453494      -0.17450597       0.01894497       0.07339301      -2.92761943       6.72679483       2.70761507
I        3.22763775       0.82575515       6.99364001      -0.05310323      -0.18380489      -0.21470356      -1.88309213      -4.10783991       1.31272587
I        9.36531215      25.79928657       6.79299484      -0.02313088      -0.07924417       0.03257342       2.30935697       3.92126074      -3.18503431
I        6.01014585      22.70241975       6.49973402       0.02809375       0.12671672       0.25073246       2.13240376       0.20766067       1.26939861
I        7.50028977       3.06710483       6.74616980      -0.27067029       0.04607760      -0.08964642       1.55657916      -1.16349177      -0.99037552
I        9.22579168      26.14124261      -0.57163534       0.48685625      -0.13070367      -0.22901950       0.81325886       2.77137416       0.77037979
I        3.07296799       0.17268008      13.12964898       0.05040388       0.01134924       0.01885383      -0.53065188       1.29705402       0.12303354
I        7.23898911       3.43460498      13.37531652       0.04875961      -0.20313704       0.18114515       1.95186415       2.68007573       0.72817912
I        5.83398329      23.04692333       0.19542673      -0.01168171       0.04953763      -0.14282463       2.65455383       0.80402539      -4.38532975
I       12.22222440      -0.28253776       9.85264922       0.04423961       0.09407582      -0.12257243      -2.55206998       1.51803147      -1.16394202
I        0.40982836      26.01622910       3.35144482      -0.21434742       0.16038622       0.13580705       1.03816875      -0.47543987      -0.75112605
I        7.21632577       0.09133516       2.85023045      -0.04924245       0.07957079       0.22633696      -0.46595607      -2.13074016      -0.10858659
I        5.83939468      26.30810630       9.85988601       0.11378988      -0.00878204      -0.36896496      -1.52858918       1.73841141       1.32551315
Cs       9.77816663      22.74548453      16.56828603       0.00479514       0.12790915       0.03553712      -1.28189212       3.45591613      -0.14121369
Cs       3.16917084       3.22538595      23.15563062      -0.11281842       0.21596085      -0.08695478       2.96664153      -0.71800485       0.19779957
Cs       2.86417922      23.36983582      23.31723851      -0.00576687      -0.06149540      -0.03246781       1.03017685      -0.43806407      -0.56486093
Cs      10.00710409       3.36929311      16.35956152      -0.12096071      -0.01442123       0.09327788      -2.08149711       0.17023891      -1.21876719
Pb      -0.20363094       0.17598298      19.65249037       0.31670681       0.07770400      -0.11972598       0.52723163      -4.23966346      -0.30159618
Pb       6.20870003       0.46444176      19.28506217      -0.12609878      -0.11165175       0.02947064      -0.05968567      -3.19858838      -0.03364167
Pb      -0.15129115      -0.30720266      13.05383566      -0.07628073       0.39864849       0.05868333       2.81361417      -2.05867543      -0.09135688
Pb       6.23670607       0.36849442      12.69501617       0.12297915      -0.09830951       0.36522233       0.00601343      -1.94055635       0.13224154
I        3.17990655       1.12045458      19.06252405       0.05396966      -0.06252252       0.07843368      -0.59250328       0.68404047       0.94240267