440
Lattice="25.245544189900873 0.23734721006848802 -0.16453692677033543 0.2836831951846572 25.71995419309306 0.15190369041137125 -0.04095689599243469 0.1964187568011918 25.774668294669627" Properties=species:S:1:pos:R:3:forces:R:3:momenta:R:3 energy=-1534.874755859375 stress="-0.0003225488471798599 0.00025226076832041144 -0.0004193113127257675 0.00025226076832041144 0.0005719815962947905 0.0002357930497964844 -0.0004193113127257675 0.0002357930497964844 -6.19239071966149e-05" pbc="T T T"
N       10.21122283       8.75437980       3.74619356      -0.87743550       0.26038820      -0.20504356      -0.67428836       1.01217171      -0.34128348
C        8.71821445       8.59635371       3.67345203       0.64823210      -0.99006463      -1.89687350      -0.46965649       0.32318803       0.24958258
H        8.54744794       8.47386055       2.55624157      -0.37649658      -0.01648305       1.24975849       0.11552992      -0.07525666      -0.26285633
H        8.25659409       9.49570577       4.03059290      -0.38626754       0.56549863       0.30180960      -0.04836093      -0.10961966      -0.21094869
H        8.43920224       7.69271512       4.23539680      -0.14739165       0.27077352      -0.06852880      -0.14690851      -0.08752930      -0.05813628
C       10.68580944       9.70867801       2.65437574       1.06230653      -0.58176589       1.84314550       0.06899482       1.04181558       0.11179862
H       10.25096171      10.67290484       2.95609203       0.53990004       0.10385535      -0.31292595      -0.04904711      -0.11489268      -0.08559940
H       10.33336088       9.38490878       1.70826296      -0.78068006      -0.46153409      -0.96311156      -0.09820656       0.03331756       0.02447886
H       11.79388120       9.57901777       2.61712764      -0.49142664       0.73096692       0.20076234       0.02786608       0.10872893      -0.03263592
H       10.64413536       7.81160398       3.68366761       0.33564359       0.00438553      -0.25335097      -0.23858071       0.07846796       0.08879362
H       10.39989551       9.11377168       4.69030539       0.51911895       0.15660473       0.08699477      -0.12603999      -0.02554112       0.05895830
Cs       3.14564172      16.46784652       9.78616209       0.11703722      -0.08070922       0.00860457      -4.54705355      -0.61854651      -2.45043518
Cs       3.14578479      10.34307859       9.24478757      -0.37721973      -0.20389280       0.11771562      -0.33673879       0.57225789       0.30837071
Cs       9.14942235      15.48515386       3.10697572       0.14339280       0.15043517      -0.01392004      -5.65945007      -2.24391924       0.48188517
Pb      -0.07584721      13.17855802       6.56107528       0.33080918      -0.05330185       0.06052485      -0.19903206      -1.58408582      -1.10800719
Pb       6.36347502      12.97375307       6.45573689      -0.18524827       0.09348063      -0.20526053       1.48237592      -0.20674837      -3.12676634
Pb      -0.14060460      12.72647524       0.00154691       0.07992756      -0.05240218       0.08519716      -2.49887156       2.72566404       1.53456929
Pb       6.22006480      12.96270070      -0.03429190      -0.10766938      -0.25426638       0.26439292      -0.91961379      -2.34521585       3.03841569
I        3.16259802      13.83740507       6.76253778      -0.12588783       0.01956303       0.02236392       2.08743533       2.51829534       0.91171959
I        9.40208291      12.67266942       5.79291070       0.18814055      -0.03697810       0.12720180       1.32860098      -2.03508721       1.11705204
I        5.29157130       9.86024922       6.06096606       0.25392578      -0.00221954      -0.01411648      -1.13271867      -3.89207391      -1.54015579
I        6.66496150      16.39273741       6.77399099      -0.38062690      -0.13325127      -0.23978624       0.79546457      -0.75642413      -0.64651694
I        9.29594614      12.54117624      -0.07029527       0.26361858      -0.02381529      -0.06979501      -1.06412555      -0.52298942      -0.98489521
I        3.36050587      13.88585980      13.09205017       0.01153263       0.08611356      -0.07085461       2.07216405       1.79223980      -1.20945567
I        7.10363002      16.31814146      12.35620665       0.05788739      -0.18300631       0.06452649      -0.59683828      -0.87603215      -0.16736921
I        5.24518328       9.72089283       0.53231618       0.03600830       0.12625798       0.03849286       1.52562415      -3.11509166      -0.31326063
I       12.95163650      12.47587729       9.59710923       0.07613187       0.06857937      -0.09286196       2.09066411       1.62024143       3.16485402
I        0.17785063      12.64316773       3.10727168      -0.09621440      -0.13422082       0.44810702       0.36207603      -0.92580044      -1.39932583
I        5.99039564      13.70044056       3.36719194      -0.11630653      -0.13596324       0.02801233      -3.78969829      -1.03977076       0.52060417
I        5.67950851      12.60469269       9.58362060       0.51048999       0.25713056       0.27985184       0.12021523       2.27359212      -1.31769021
Cs       8.76196398       9.37840746      15.88830844       0.18143197       0.09801594      -0.08160585      -0.24273615       0.58953678      -2.27676619
Cs       3.30709141      16.31499107      23.40710210       0.14736704      -0.18093515      -0.08728224       0.83409398       1.30584529       0.65915828
Cs       3.19952888      10.02382350      22.23272077      -0.05513167       0.04166807       0.11953012      -0.27312025      -0.56693228      -0.15092125
Cs       9.48127651      15.52508559      15.80336519       0.01982238       0.06959366      -0.11818321       0.55096672       1.35613777       1.44712963
Pb       0.19698548      12.80165486      19.29686114      -0.14236348       0.21901552       0.06498587      -1.08769599      -2.12601855       0.09026185
Pb       6.30726497      13.17890880      19.34789872       0.20156352      -0.29103893      -0.07021855      -2.38055289       2.79812921      -1.73397424
Pb       0.24260040      13.09194900      13.10571352      -0.16715333       0.20782336      -0.52751364      -1.69187993       1.07298913       2.40371089
Pb       6.39826277      12.99561773      12.74558371      -0.00903846       0.07761822       0.09373908       4.41599340      -0.82386964       1.27659779
I        3.37432083      13.73682682      19.59187655      -0.37519669       0.12033450      -0.13375515       0.43983450       1.23211732      -0.08902476
I        9.82076078      12.12729628      18.19250455      -0.18697427       0.16838742       0.21911506       2.86682671      -0.44880290      -0.21986018
I        5.89561336      10.12507650      19.11008117      -0.08941941      -0.33810971      -0.08244131       1.44141182      -0.73872893      -2.30295968
I        7.02744658      16.02581098      19.49112328       0.28771152       0.63185934       0.09091674       0.49450246      -1.63785300      -1.37599958
I        9.61364626      12.04702438      13.06617605      -0.02040645       0.14731096       0.04595100       1.10266701       2.65462488      -0.03623982
I        2.99274630      13.37513805      26.16368024       0.01251395       0.16603307      -0.07877661       0.40579802       2.38387321      -0.33517517
I        6.54662053      16.23308029      25.81221890       0.22483226       0.00140603      -0.14844774      -0.70716634      -3.19467667      -4.32426442
I        5.87535479       9.95988387      13.15875415      -0.01995343      -0.05062698      -0.12010149       0.63760412       0.45158830       3.48358135
I       12.06740360      13.61279320      22.30306370      -0.22760706       0.03869002       0.37848820      -2.52619908      -0.96876065      -0.92692426
I        0.28280141      12.50411381      15.94166438       0.01011491      -0.03897653       0.85691278      -0.51299822       3.25641620      -0.77448173
I        6.41893326      13.47408062      16.09224985      -0.18208703      -0.04547075      -0.08300368       0.73037165      -0.04397142       1.50217244
I        5.78165143      13.10958526      22.74184879       0.09661223      -0.04062632      -0.18982219      -1.81156584      -0.64489553      -1.10479841
Cs      16.02771789      16.23854840       3.26142334       0.06263534      -0.12148013       0.00764453      -1.97199711      -1.34447866      -0.35200579
Cs      10.23354437      22.22962862       9.71778721      -0.05090574       0.05417187       0.08733802       0.62015994      -2.87010845       0.95561952
N       10.10274219      16.39615717       9.79888133       2.02379316       1.76760145      -0.69124187       0.16577070       0.44858505       0.20188857
C       10.50240988      15.01552636      10.02150517      -0.10198992      -0.93172276      -0.44855734       0.57813827       0.55564858      -1.02826958
H       10.98936155      14.87228716      10.99957055      -0.05466697       0.17799550      -0.22212922       0.10973825       0.00941903       0.29405678
H       11.18280364      14.80358975       9.18623532       0.22544217      -0.41748687       0.18506398      -0.13020772       0.03949321       0.08925068
H        9.63890869      14.35214729       9.91758122      -0.22731751       0.00618976       0.12522416       0.01438927      -0.11516040      -0.24030244
C        9.37700373      16.66025746       8.54356416      -1.66215512      -1.31709228       1.01089806       0.36204269      -0.37570256      -0.35096105
H        8.47442462      15.99746789       8.58863995       0.29643959       0.31619946       0.08230852      -0.05812012       0.00857930       0.08324978
H        9.96532398      16.22345325       7.77058782       0.65928691       0.37641691      -1.07118659      -0.01507332      -0.09073429      -0.06219462
H        8.98095680      17.68282554       8.47123258       0.68534195      -0.03604953      -0.20375818      -0.21892398      -0.13608210      -0.00903936
H       11.04931064      16.91338506       9.68810382      -1.23197185      -0.10971963       0.70781807      -0.03198697      -0.11730773       0.21602123
H        9.58569789      16.78662304      10.57358603      -0.30354034       0.29989130       0.83868574      -0.04927698       0.03740338      -0.14748996
Cs      16.46293382      22.44389040       3.62733506       0.07014511       0.00152350      -0.09422148      -2.23094763       0.90291462       1.44950539
Pb       6.37691699      19.55063025       6.64633042       0.03509986       0.03605574      -0.03677520       3.58165024       1.88671278       0.79141785
Pb      12.84750827      19.05811368       6.63625665      -0.03833027       0.04426232      -0.18989753      -0.21351644       2.17554719       0.62182389
Pb       6.30087331      19.18631901       0.22378334       0.10634374       0.19532447      -0.02947226      -0.23035596      -2.69943874      -0.00571134
Pb      12.77761115      19.48079635       0.15535439      -0.02139198      -0.02607605       0.02235741      -4.13442740       1.84750846      -4.39465480
I        9.51565496      20.09749663       6.43685412       0.18565487      -0.00062340       0.16645125       4.42852421       0.64944774      -0.23199746
I       15.99904954      19.31785554       5.69029498      -0.12614632      -0.20158713       0.20632492      -1.34038976       3.17536001      -0.68630529
I       12.61047567      16.27444896       5.11969011      -0.05909822      -0.09413648       0.08359247      -1.68602856       2.35503482      -1.90104785
I       13.57181398      22.05478430       7.25440661      -0.09798706       0.07191615       0.15050338      -0.59070329      -3.02402887       1.15036054
I       16.09192496      18.74991403       0.48263184      -0.19492943       0.12616242      -0.05754467       0.32344409      -0.60241024       1.39852634
I       10.15311731      19.62460715      12.71334748      -0.26917867       0.10239841      -0.18255001       1.19594624       3.13670468      -2.74687091
I       13.69826076      22.50551967      12.17401372      -0.03242908       0.29281270      -0.07800355      -0.57449805       0.80058217       0.74597427
I       11.98250241      16.18115804       0.47991619       0.01018164       0.11904891      -0.13771397      -3.35977993      -0.89051040      -0.91579870
I       18.85251950      19.84135697       9.64907799      -0.12291284      -0.14850863       0.10202729      -1.93122290       1.86117931      -1.05335702
I        6.77935823      19.04906618       3.20354622       0.12288412      -0.04663355       0.43892966      -1.20709780      -0.47936342      -0.23329295
I       12.42748232      20.09509901       3.31320716       0.16500323      -0.09188542       0.03172568      -1.49024806      -0.00507285       0.64997086
I       13.41099112      18.41983167       9.89927598      -0.01634479       0.01884342      -0.48233678      -1.81502680      -1.00463785       0.98259292
Cs      15.08581033      16.18173567      16.60372580       0.03786612       0.00157276      -0.04742709       1.87106042      -2.93719995       2.15448925
Cs       9.22844433      22.92903166      23.02948900       0.12538139      -0.03214906      -0.15733719      -3.35824451      -0.58903122      -1.48469676
Cs       9.48277539      16.59236098      22.96031286       0.00036773       0.06142806       0.01881343       1.61334339      -0.24170018      -0.83879225
Cs      15.74251539      22.55779870      16.22995559       0.06377044      -0.01764225      -0.03125114       0.49923873       2.98977894      -0.63957089
Pb       6.58239469      19.31512669      19.25751740       0.09422287      -0.05379434       0.04909593      -2.00180185      -3.32607739       1.43519348
Pb      12.47459817      19.43928448      19.13877458       0.09955263       0.26338844       0.10394637       2.53252498       0.85030258       2.35639144
Pb       6.80693396      19.30845507      13.09877510       0.04650593       0.09811952      -0.05366138      -0.62645151      -1.95508229       1.17906516
Pb      13.23554446      19.50962597      12.80233561      -0.06276003      -0.07099847       0.18731863      -0.35205063       1.11281418       0.46164793
I        9.62398966      19.93336292      20.54374518       0.12472280      -0.07520011      -0.22821328       3.10188205       0.98951870      -1.14819664
I       15.98171476      19.13016079      19.56956579      -0.15497603      -0.05753056      -0.17852373      -0.56800917       1.17107782       1.36200084
I       11.70916108      16.52726316      18.54745065       0.10953559      -0.00863899       0.12426659       1.04440101      -4.44341325       3.08288818
I       13.70924559      22.94121002      19.38306363      -0.07637102      -0.40883267       0.00949239       1.10893938       2.66254694      -1.84249816
I       16.20884625      18.49127656      13.74555580      -0.35055624      -0.05877621       0.07014811       0.04523305      -0.01574308      -2.02983009
I        9.60728295      20.14323135      25.59672676       0.07322925      -0.06804435      -0.00834136       0.38338671       3.75123526      -2.73648234
I       13.81483378      22.94029551      25.65115934      -0.21338774      -0.57518602       0.17884812       1.96721565      -0.28941517       1.12344844
I       12.67222396      16.13131488      13.05195185      -0.02918076      -0.07848808       0.26335123      -1.88044114      -0.49648908      -1.73458199
I       18.76582167      19.24056892      22.64342080       0.03476267       0.19633255       0.02395805      -3.85986366       1.03262012       3.08737478
I        7.87197083      19.51319077      16.21848274      -0.09778578      -0.13513760       0.16488529      -1.91593993       2.31120921      -0.10120352
I       12.26220991      20.15903193      16.00432833       0.16972287       0.01176034       0.33861084      -2.35929845      -2.80450925      -0.29731135
I       13.00762261      19.89053548      22.74093043       0.06316904      -0.15983946       0.00946488       0.57960829      -0.75127450       1.72788431
Cs       9.29444487      22.06146125       3.25495054      -0.13688923       0.05713916      -0.20848820      -0.50704047       2.36344303      -0.15221530
Cs       3.93959200       3.13936928       9.79807899      -0.14058968       0.06466040      -0.11048712       1.78847848       2.51023039       1.13187904
Cs       3.81340728      23.22735020      10.22926983       0.04722784      -0.06206509      -0.13730227       0.80179329       0.55986290       2.45079314
Cs       9.47169483       2.22255062       2.69035557       0.29063279       0.19341707       0.13169450      -1.64961020       1.66783175       2.48262524
Pb       0.01609799       0.17284964       6.57319527       0.06138875       0.04088475      -0.12988064       1.69090076       0.70214229      -3.44590454
Pb       6.60109334       0.26138884       6.08708923      -0.32608687      -0.19050490       0.01048411       2.35997914       1.85352834       2.98971613
Pb       0.10439679      -0.04918150       0.10565471      -0.01734825      -0.08827668      -0.01614146       0.38179562      -2.34970138       0.89934295
Pb       6.36182805       0.35760638      -0.44902294      -0.04186799       0.15354416       0.30890906       0.82002925      -0.16296177      -1.64698367
I        3.09020688       0.71600343       6.82573904       0.29671125       0.11556476       0.04491019      -0.65821197       3.35367542       2.74032405
I        9.69403108      24.77655906       5.67634639       0.08253489       0.11838969       0.03170019       1.14777061       4.94819271       1.13678908
I        5.60030959      22.78833300       5.82752971       0.09533704      -0.03974978       0.05322357       1.47228007      -0.57104447       0.80880635
I        6.91840198       3.38912810       6.48747953      -0.02881535      -0.00800058       0.05681918      -2.78599883       1.74674785      -0.23950961
I        9.76485911      25.01014431       0.17797830       0.00028952       0.01492251       0.19818132       2.52223071       2.82668784       1.03550305
I        3.02059357       0.56103650      12.66277747       0.57629210       0.15553047      -0.13988420       1.18862231       3.13222807      -3.09799160
I        7.04917989       3.37745943      11.88695727      -0.00078353       0.03822959       0.04071923      -1.58478823      -1.41467477       0.14514015
I        6.14047101      22.37990521       0.55809939      -0.00185683       0.16215375       0.00995144       2.82186239       0.27974336      -1.36465330
I       11.96509933       0.38093562       9.12936905      -0.00397571      -0.09197788       0.11613385      -2.98765582       0.53541823      -0.27772386
I        0.95204969      25.75460392       3.51300966      -0.09762619      -0.08358307      -0.05285678       0.86632322      -0.21820344      -0.87316237
I        6.15291608       0.96335763       2.81919473      -0.08078210      -0.11362551       0.25492576       2.73099278      -1.28715208       2.28730203
I        7.12882515      25.61720740       9.42643482      -0.08352467      -0.07004060       0.02625452       0.52756467      -1.25742246       2.21614585
Cs       9.53793684      23.03445285      16.80240025       0.01681483      -0.04561162      -0.07841679      -5.22050881      -1.86729548      -1.16343593
Cs       2.65953313       3.22997581      22.70694030       0.04788498      -0.06212435      -0.08168353       0.66758832      -5.95102571      -1.89152016
Cs       4.02218486      22.28903948      23.25958536      -0.27075173       0.03281804      -0.16946288       2.50280346       0.93352715      -2.11581955
N        9.99846097       3.56660301      15.51780573      -0.92123704      -0.47620061       0.68360941      -0.16838035       0.45610947       1.23784434
C        8.76177519       4.42477672      15.47393196      -0.10252196      -0.75242096       0.13864588      -0.51596410      -0.51381462       0.23047954
H        8.80381873       5.13072250      14.68117944       0.45089813       1.07126379      -0.71112434       0.21261132      -0.30441462      -0.06425198
H        8.50815847       4.89890782      16.44255575       0.52451167      -0.22094202      -0.22008430      -0.07295427       0.03886236      -0.14762949
H        7.94218025       3.77056169      15.19994939      -0.35871748      -0.38832631       0.07887274      -0.13995454      -0.11464805       0.09035948
C        9.66400880       2.34489753      16.33115890      -1.38277481       1.07065510       1.52747891       0.09521357      -1.04771510       0.65602873
H        9.34803872       2.74994159      17.38081569       0.19130588      -0.68467258      -1.64229607       0.21034459      -0.11961402      -0.11373635
H       10.52939609       1.72458319      16.53541969       0.28253508      -0.32950960      -0.44405783      -0.31171073      -0.00718587      -0.00035363
H        8.77808114       1.84649616      15.82397397       1.10456207       0.28901869       0.58218039       0.00683331      -0.22855859       0.33165170
H       10.75911908       4.09003724      15.94932164       0.48471014       0.29515746       0.25200853      -0.21256753       0.09705774      -0.13946077
H       10.34107160       3.25796133      14.59604621      -0.10301419       0.27240616      -0.39826950      -0.08944672      -0.02955047       0.05376125
Pb      -0.28881928       0.22695291      19.44137454       0.17614144      -0.14280761       0.03896834       2.19057284      -3.04600526      -1.71240452
Pb       6.09669858       0.43532332      18.94808495       0.13144403       0.00320182       0.34623063       0.90924676       1.60676388      -2.55593251
Pb       0.00787742       0.34580372      12.74538878      -0.24320421       0.07189920       0.08146193      -0.87875122      -1.63157430       1.76652912
Pb       6.45306724       0.08504377      12.63371401       0.08082099       0.02495567      -0.04929530       2.60155147       0.82738112       1.43116510
I        3.01529950       0.44445644      19.57291686      -0.00970580       0.06485064      -0.10893501      -1.19576410       0.57526125      -3.61884675
I        9.65880911      25.80759289      19.54302469      -0.31578988      -0.21931580       0.04720623      -1.36688232       0.24539083       0.05475376
I        6.47904090      22.37951294      19.28441524      -0.15610802       0.35664653      -0.03134956       0.65367488       1.50675809       2.57837977
I        6.08598152       3.70597563      19.89489804      -0.04634204      -0.32750536      -0.06921940       2.23183350       4.07439512      -4.32665688
I        9.84448102      25.22870488      12.93612328       0.15611973      -0.03523485       0.02126665      -1.70349781       1.23782088       1.97382878
I        3.27156415       0.59726178      25.83921701      -0.09302893       0.07915285      -0.13538415       2.11921879      -0.34159002       0.11237239
I        6.34293970       3.89128573      25.03037595       0.27853207      -0.48681521      -0.15937068       2.83802466      -2.55504129      -3.00789427
I        6.58456247      22.73111232      13.01425665      -0.03656115      -0.05102742      -0.04342072       0.06499283       1.74389174       0.51832047
I       12.39089114      -0.22672540      22.60651998       0.08651799      -0.03037415      -0.05919224      -0.49207998      -2.21758396      -1.40696663
I        0.06420597      26.03660253      16.25727216       0.05983423      -0.04691602       0.07090903       1.15231087       4.11027258       2.70699950
I        6.30358715       0.49109078      15.90666519      -0.15377510      -0.01545926      -0.10826409       1.58019497       3.06561838      -1.15935228
I        6.15786639      25.39469083      22.63728043       0.04708521      -0.06769351      -0.28124117       2.45443018       0.12196394       1.37400840
N       16.12583316       3.39153272       2.30184273       0.85102885       0.53380075       0.90418925      -0.73060944      -1.21600673       0.59321251
C       17.11359577       4.06754634       3.20611099       0.28507981      -0.24207302       0.79520760      -0.08274544       0.01220431       0.05077472
H       16.53967127       4.83179486       3.76496751       0.23168776      -0.52285125       0.29082928      -0.23252002      -0.11793487      -0.21454344
H       17.91045141       4.63180326       2.69826395      -0.16990355      -0.34216154      -0.44754886      -0.04366505       0.01454306       0.35659152
H       17.56951593       3.24432282       3.80620488      -0.28686421       0.76352539       0.12862965       0.24291289      -0.21245494      -0.07308985
C       15.03350720       2.75966069       3.10729429      -0.18354439      -1.12850791      -0.83991528      -0.71573635       0.16816437       0.67190841
H       14.78312450       3.39462767       3.92585013      -0.16777141       0.71332352       0.74985523      -0.36168825      -0.06769872       0.35315509
H       15.35747550       1.76787083       3.50153985       0.09187325       0.54752191      -0.22265650       0.02114707       0.08417051      -0.13353962
H       14.11891139       2.58949763       2.50319228       0.41116226       0.15149560      -0.03062146      -0.14462933       0.04765996      -0.22952853
H       16.68127819       2.67018173       1.79666920      -0.64745814       0.28925831      -0.58336113       0.02920674      -0.08720284       0.10444133
H       15.81354591       4.21575298       1.73066470      -0.37663917      -0.72005654      -0.70768498      -0.16210843       0.30160350      -0.10690040
Cs       9.37915525      10.60341016       9.63382871       0.08818461      -0.15590018      -0.14724820      -0.33441972       1.15610374       0.49640813
Cs       9.59916136       3.86858088       9.14845347       0.20293173      -0.06267937       0.01619405       0.32588542      -3.94897136      -1.87893513
Cs      15.53649483       9.30352043       3.17165842       0.00315948       0.07402694      -0.22062646       1.12033129       2.01675843       0.05871260
Pb       6.11088587       6.48399016       6.30503846      -0.13686156       0.10633717      -0.00567672      -2.32672131       3.22090582       2.63615179
Pb      12.40971987       6.88659125       6.42655688       0.10868791      -0.12410763       0.06630577      -1.94720636       0.82235253      -1.14925241
Pb       6.12618971       6.81238333      -0.00456956       0.17121041      -0.10772306      -0.07947838       1.28036602       2.13765848       1.94363911
Pb      12.74790162       6.39231417      -0.00753322      -0.06789174       0.15090658      -0.25241387       0.10659583       0.09862291       2.05557885
I        9.23300648       6.97920111       6.99245206       0.02072025       0.11238569       0.06052113      -3.01697144       1.77303915       2.39754404
I       15.71366513       7.19035210       6.08276401       0.00435295      -0.12556532       0.04806741       0.35846669      -1.68520254       0.34459461
I       11.86385659       3.02968331       5.86625769      -0.13063311       0.06718876       0.00404096       0.70109693      -1.20351609       0.36533096
I       12.68162152       9.92548526       6.97131564      -0.04795070      -0.04652646      -0.22262398       1.06155761       0.32903669       1.40899892
I       15.90556768       6.14129881       0.09266937       0.30399626       0.07264594       0.02517468       3.42303718       1.72129939      -2.69899361
I        9.67038655       7.51855377      11.95012600      -0.15014475      -0.11682801       0.11533811       2.02757324       3.57144484       1.07161159
I       13.40742474       9.69798774      12.70796833       0.15815603       0.05709616       0.06146510      -0.36281809       0.80479380       3.02119047
I       12.17568658       3.34656240      -0.05513371      -0.04455793      -0.21536325       0.17450140      -0.49464395       2.25841595       2.30265300
I       18.13878061       6.88467479       9.34722017       0.02835633      -0.07417804       0.58253923       1.09193038      -1.49607285       0.97747169
I        5.97674815       5.73956977       3.01552951       0.04340129       0.08785298       0.19302705       0.22252879      -3.93156629       0.39129681
I       12.80613555       6.30003661       3.08448123      -0.06336679       0.11989139       0.23652926       1.82289902       1.52443200       0.39888801
I       12.91934776       6.47758437       9.47402105       0.02755332      -0.03828544      -0.04793719      -1.56514326       0.11656608       1.07488208
Cs      15.34361009       2.93558170      15.63396768       0.03563522       0.13127510       0.05454393      -1.05717226       2.81860741      -1.00391553
Cs       9.80913931      10.27465215      22.49757439       0.01952709      -0.09559052       0.00245947      -0.43898008       2.89374615      -2.53250431
N        9.66708008       4.09364421      23.22748690       0.25032470       0.65939874      -0.29073240      -0.28006469      -0.66340501       0.10567315
C        9.96780405       2.77073925      22.75813331       0.00970712      -1.89397363      -0.31009794      -0.83180355      -0.13272595      -0.37222879
H       10.98041774       2.75715228      22.42665392       1.04331478      -0.05540431      -0.49123335      -0.30417722       0.00367346       0.08634215
H        9.32077371       2.48814959      21.91428918      -0.05077199       0.23675908       0.14284948       0.10659374       0.25147442       0.12777532
H        9.88870639       1.97337452      23.52220628      -0.15601108       0.52939640       0.04256900       0.06551259       0.21289498       0.14072310
C        9.49929963       5.07304232      22.12568411      -0.37280209      -0.09213733       0.01804030       0.99138880      -0.25078085       0.92572145
H       10.45306079       5.08426770      21.54919798      -0.60678778       0.33340162       0.21069608      -0.06691058       0.07021780       0.08704620