400
Lattice="25.4583896168667 0.17001796293287064 0.01929566997952746 0.19249009238267722 25.454067831851056 -0.12430515634120458 -0.05418642186266806 -0.17032313412278052 25.845036854741426" Properties=species:S:1:pos:R:3:forces:R:3:momenta:R:3 energy=-1322.7210693359375 stress="0.0006272688624449074 -0.00011448522855062036 -0.00011287906818324701 -0.00011448522855062036 0.0010745422914624214 9.286237764172256e-05 -0.00011287906818324701 9.286237764172256e-05 0.0010447565000504255" pbc="T T T"
Cs       9.38646320       9.40785759       3.32838556       0.02663914       0.30496137      -0.45010396      -2.18157900       0.69365899       1.66208483
Cs       3.10753562      16.11565006       9.17631699       0.08819656       0.03598718      -0.00552931       0.14530657       2.63385523      -1.99582231
N        3.40387310       8.76419474      10.04680233       1.89849986       1.28575981      -2.22573258       0.20203065       0.21722047      -0.43784931
C        3.52576297       9.85570513       8.97571560       0.52747666      -0.45099990      -0.28658999       0.85914863      -0.07455367       0.15237133
H        4.18923537       9.42411604       8.19022157       0.02407052       0.44258462       0.52671180       0.02990838       0.09280992      -0.08479397
H        3.94369577      10.76644991       9.46666980      -0.19034381      -0.57837553      -0.46539794      -0.08442761      -0.19350713      -0.05055320
H        2.57812954      10.04308736       8.44845042      -0.14497544       0.00450940       0.58016036       0.01579287       0.04884933       0.43245254
C        2.83528371       7.51962333       9.58092264      -1.65223815      -0.36917649      -0.30534881       0.48779594      -0.56815030       0.03476181
H        3.48683761       7.03198875       8.88749546       0.98174672      -0.39492790      -0.37616508      -0.08362417       0.09276430      -0.08933947
H        1.89454891       7.68754237       8.97474804       0.47521110       0.17799413       0.92707144       0.04345767      -0.13894733       0.01001294
H        2.67148926       6.94225346      10.49265084      -0.28594479      -0.39691815      -0.13335422      -0.19197033      -0.01682018       0.24282859
H        2.89205999       9.12463716      10.79946939      -1.63621532       0.90354388       1.87394524      -0.22706986      -0.10016098      -0.18821342
H        4.36113261       8.63959297      10.42949944       0.07017720      -0.27809251       0.01203000      -0.22328886       0.31555788       0.10141039
Cs       9.47268023      16.06179636       3.14180049       0.34665633      -0.35360797      -0.00792792      -1.25460546       0.38426550      -0.05065280
Pb       0.10113954      12.42979718       6.21905046       0.05276266       0.20774080      -0.14768851      -0.03708028       1.93926136       4.44514612
Pb       6.24375239      12.95708384       5.97551486       0.19947397       0.10836697      -0.07945323       0.27891988       0.02207137       0.32118914
Pb      -0.14138316      12.40457886      -0.04542582       0.23208099       0.10119739      -0.24330656       2.03003343       0.58499794      -2.49644308
Pb       6.48616069      12.99728648      -0.20747535      -0.05370648       0.01409756       0.13980042       2.30521690      -1.19363011      -2.50624415
I        3.25322677      13.52088696       6.13997315      -0.30804964      -0.01377580       0.14875766      -3.05413832      -1.73246391      -0.92976202
I        9.45316700      12.49630659       5.56205564       0.13890068      -0.06816598       0.12292287      -1.21385192      -0.62970538       0.06746048
I        5.91702972      10.01987058       4.99074678       0.05494048      -0.21638456       0.09726529      -1.03211356       1.19212420      -0.39862614
I        6.85113792      16.00792107       7.03224922       0.11372342       0.23508581      -0.05149078      -4.37557120      -2.99547752      -3.19229522
I        9.79292927      12.77680544       0.70137672      -0.27540157      -0.11903759      -0.14121953      -1.93545294      -1.20516219       0.94249025
I        3.17819307      14.10508166      12.45080821       0.03766519      -0.18033015      -0.02032042       3.04425382      -1.89431487      -3.15667280
I        7.03679168      16.04659914      12.68873763      -0.07141507      -0.10218798       0.07417996      -3.82830106      -0.59134407       1.91638397
I        6.14898852       9.68630313      -0.07087385      -0.05836264       0.05984848       0.19588455      -1.19458409       2.79860333       0.68310832
I       12.74486156      13.30292701       9.73532028      -0.23452499      -0.03117082      -0.23695850      -1.49719872      -0.29094152       0.96241489
I        0.90737533      12.10439470       3.04075971      -0.13698651      -0.06817138      -0.03773411      -2.01170598      -1.60443178      -0.47912569
I        6.25089915      14.09364738       2.97019097      -0.15952902      -0.13920221       0.04323503      -1.25709521      -0.10425536      -0.21226628
I        6.99957265      12.75741710       9.52998942       0.02874515      -0.03688013      -0.11936898      -2.43181639      -1.93851264       1.23422787
Cs       9.65242637       9.37103776      16.24390872      -0.03835713      -0.31941758      -0.11250990       2.94685272       1.12886585       1.89946123
Cs       3.21901973      16.03478548      22.24834406      -0.05009840       0.03423210       0.06735168       2.32388691       2.00395401      -1.49649396
Cs       3.47425865      10.11856031      22.33885562      -0.07207733       0.05485103       0.06505697       2.52097106       3.99450778      -0.33249062
Cs       9.40012492      15.40761986      16.28972652       0.13715014       0.11472007      -0.07442189       3.30973377      -2.02048670       1.63318339
Pb       0.12867345      12.79660851      18.89484040      -0.17853662       0.44065808       0.15908271       1.89182431      -1.08394374      -0.81966100
Pb       6.69147231      12.71608028      19.15021265      -0.21780514       0.02636367       0.05464761      -1.55704087       3.93600109       1.84038280
Pb      -0.30759956      12.43108983      12.43625716       0.08840725       0.13543854       0.38107570      -0.36205056      -0.22206483      -0.38850593
Pb       6.05322262      12.93277355      12.39128482       0.09436747       0.12463523       0.26694542       0.12574629       2.66374629      -1.40955388
I        3.22785912      13.00833258      19.81860395       0.13493961       0.11808245      -0.02656254      -0.07225249       0.42408342       1.70737581
I        9.64766830      12.16579832      18.38462746       0.09019046       0.17667436       0.36435492      -3.90152391      -1.69045682       0.19269533
I        5.83681581       9.43390238      18.30558736       0.17156505       0.13977945       0.17088232       1.61262980      -2.99270296       3.24905355
I        6.42322893      15.79279402      19.96615742       0.20736026      -0.09161681      -0.04730127       0.08016807      -0.60899452       0.23308325
I        9.71885207      11.99304924      13.75106114       0.01903291       0.14649714      -0.36032055       0.67025838       0.51026910       0.13512068
I        3.07717243      12.79493616      25.14980005       0.24962439       0.07861375      -0.04020403       0.85465458       3.11046446       1.32337851
I        6.87398424      16.01891481      25.38949952       0.03463307      -0.06720386      -0.18446378       0.36164321      -2.64494008       0.42231266
I        6.24097165       9.50813765      12.45963561      -0.17129491       0.13886276       0.06714671      -0.32887251      -0.51105556      -1.12033208
I       12.19860605      12.67977432      22.54538800      -0.04068586       0.12361613      -0.00971818       1.57813864      -0.78181622       4.21267043
I        0.09448564      13.90796564      16.00005921       0.00087161      -0.20854531      -0.15515599       2.36735297      -1.02389308       1.10648770
I        6.50938257      13.15234420      15.91125409      -0.20962208      -0.04116924       0.11875673      -0.89374206      -1.05661594      -1.06741123
I        7.09279078      12.32989865      22.63399427      -0.03071607       0.02167793      -0.20567990      -2.06373119      -1.55708762       1.16689857
Cs      15.78176618      15.81797433       3.14538184       0.00250797      -0.22156193      -0.14133885      -1.70720588       1.89751303      -0.36365686
Cs      10.95747790      22.36628487       9.42126505       0.05096620      -0.00205781      -0.04012491       0.21629915       0.75875228       1.23643634
Cs       9.43555364      16.48656798      10.02068957       0.15230593      -0.10510933      -0.28446365      -0.61656338       0.05674563       0.52117470
Cs      15.91067825      21.60499733       3.53828116      -0.02813478       0.11975338      -0.30770236       0.98811239       1.57226346       1.36614213
Pb       6.74093312      19.32148922       6.26604522      -0.10420460      -0.06530484      -0.23402868       5.00596153      -1.41018091       1.76992705
Pb      12.86695467      19.23137681       6.27913502      -0.06871553      -0.00389676       0.00496668       1.12830929       3.69466760       2.39208175
Pb       6.53438992      19.32970962       0.15087166       0.04937043      -0.13391319      -0.23099584       0.88392391       2.78848303       1.03432515
Pb      12.69593807      19.24945247       0.15061774       0.03059500       0.34469514      -0.06237809      -1.40974783       0.40683137      -3.61408351
I        9.76097018      20.11091842       6.29783799       0.01337575       0.00979112       0.28227798       1.44107066      -0.46863491      -1.20670565
I       15.96053964      18.36106531       5.64939587      -0.16432001       0.11200992       0.14256857      -0.25851890      -0.41170258       1.45133632
I       11.95858114      15.90359214       6.63212178      -0.14821869       0.68661310      -0.15971764       1.24646302       0.00763842       0.94375928
I       13.64139326      22.42440104       6.25318422       0.07310460      -0.08968528       0.38944723       2.14455102      -4.52463914      -1.31420065
I       15.77560781      18.77194975       0.54201016       0.15302707      -0.14346224       0.10462143      -1.49416204      -3.69734545      -2.14521444
I        9.29871316      19.65494000      11.95260440       0.32763929       0.16615085      -0.07179484       0.32040676       0.69350354      -0.11311500
I       13.71798920      22.21369828      12.61268127      -0.01015885       0.03196041      -0.09868917       0.19439098       3.28992263      -1.80961796
I       12.15728840      16.31265494      -0.15533154      -0.05108708      -0.50277028       0.08811354      -0.26341550       0.13031000       1.40879280
I       18.93075518      19.41204474       9.54403946      -0.06323387       0.07524776       0.20644155       0.22897739      -1.06955196      -3.85895133
I        7.31295599      18.70357544       3.22074554      -0.26465168       0.32122744      -0.34928722       1.75619510      -2.50510334       0.17617478
I       12.23743388      19.99078947       3.23908669       0.02576205      -0.10575147      -0.07342407       2.19416546       1.36666460      -0.90021451
I       12.92281112      18.77551110       9.47613757      -0.05143631       0.16131723       0.11619903       3.25069767      -1.62097243      -0.63989875
Cs      15.02574074      16.24758179      15.66844785       0.11057798      -0.20828110       0.19277921       0.54727960       0.35703353      -2.18431912
Cs      10.28668524      22.55869353      22.83557849       0.07239311      -0.12251033      -0.07747796      -0.99302715       1.74097400       3.51418383
Cs       9.65201784      16.29565215      22.61050576      -0.06646533       0.00446331       0.04594012       0.39214626       2.22731543      -0.73140475
Cs      15.57314506      21.68957179      16.29309322       0.03652900       0.01167834      -0.04619653       0.63597629       0.44222043      -0.25689017
Pb       6.20027334      19.64884166      19.51511601       0.26518393      -0.51591991       0.18926272      -1.26452440       0.36374883       1.70306444
Pb      12.43361915      18.99481525      19.38077143       0.18791350       0.33223963       0.01400934      -1.64696187      -0.10522211      -0.53380457
Pb       6.67996520      19.28899026      13.38033295      -0.48823646      -0.19852709      -0.06904115      -0.81600468       2.10037722       2.42427746
Pb      12.76620985      19.08338467      12.92298244      -0.31384013       0.23690860      -0.11718479       5.10396415       2.16280849       1.41273661
I        9.46692414      19.88589685      19.68551572       0.13823433       0.02409814       0.13693829       1.80318243       1.08955385       0.22896254
I       15.91470333      18.44917607      19.01181281      -0.21990540      -0.06438870      -0.04862267      -0.09629523      -0.23588645      -0.84225688
I       12.08919746      16.01191915      19.60645677      -0.08110109      -0.30026635      -0.07849397       0.49082698       0.21783716       1.19180441
I       13.68227658      22.19204025      19.61326996      -0.07469898       0.01792916      -0.00361007      -0.12721012      -2.60547980      -0.89926408
I       15.73606187      18.77319432      13.08262267       0.30938904      -0.12770548      -0.03826975      -0.13341228       0.50670751       1.50619500
I        9.64768235      19.92976800      25.37167421      -0.36569940      -0.11219040       0.03927010      -1.99969733       0.27932404      -0.82544593
I       13.57436717      22.24298477      25.36326952      -0.07910291       0.42213719      -0.08096701      -1.44204784       0.18562432      -0.70044335
I       11.97754792      16.10097580      13.25554977      -0.08719792      -0.24882623      -0.03093055       1.85273565       0.68235341       1.70702099
I       18.57658845      19.01359335      22.50996747       0.13676407       0.07163995      -0.00142940      -0.56260318       1.94299599      -0.41549473
I        6.90476814      18.57516887      16.36322034       0.07385173      -0.03376539      -0.05096864      -0.95157723      -0.71774497      -0.47945940
I       11.86546678      19.18534876      16.07852438       0.16597105       0.00291179       0.09343281       0.40676653      -0.26621820       1.16782225
I       13.04435441      18.99276102      22.80035928      -0.00296695      -0.02957556      -0.36564329       0.43240340      -0.53234825      -0.93555463
Cs       9.10556549      22.79551984       2.78967796       0.01466716      -0.08670655      -0.05444092      -1.52058911      -1.51916634       5.63265144
Cs       2.86559696       3.89789881      10.26737079       0.06874228      -0.33013443      -0.25785359      -3.63113498      -1.37535927      -1.62361564
Cs       3.87548292      22.46171211       9.60834856      -0.14784348       0.03925539       0.03826583      -2.25716468       2.38118693      -0.01931651
Cs       9.30285913       3.30146937       2.56434374      -0.08283727      -0.10831603       0.09112883      -2.06938736       1.38740423       2.47060422
Pb       0.34033138      -0.02911304       6.22087648      -0.11484671      -0.04733464      -0.04079556      -3.29122821      -8.54921087      -0.63494120
Pb       6.30558569      -0.00406681       6.38241465       0.25047721       0.02265960      -0.24557185       1.49190739       1.99714033       1.05765455
Pb       0.24023624      -0.00449501       0.00948584      -0.01412079       0.05732743       0.01526344      -3.21172889      -2.40867398      -2.47693769
Pb       6.37843871       0.10328984      -0.67829751       0.02306130       0.11352527       0.23816376       0.47258761      -2.91346479       0.22609921
I        3.37959284       0.56824915       6.09781303      -0.13829408       0.08673497       0.20284620       2.54242365       0.16018595      -0.28533790
I       10.21566251      24.63131791       5.83605528      -0.34677701       0.08289257       0.16117829      -0.98130248      -0.10289458      -0.71123498
I        5.77606349      22.63813839       4.97116642       0.12142343      -0.18191749       0.24956894      -0.43075604      -1.06878787       2.47170602
I        7.71099477       3.21968512       6.17236305      -0.21923359       0.14446302       0.07509229      -0.00729355       0.93216817      -1.08611265
I        9.69137857      25.30320196      -0.09556618       0.30489246       0.00253264       0.03844370      -2.09405494      -1.33499307      -3.96871326
I        3.34639260       0.74132057      12.79354513       0.19237997      -0.07739672      -0.13519763       3.32386867       3.19657079       2.22487787
I        7.37615439       2.82853466      13.47550714      -0.06966012       0.04315925      -0.20808532       3.40223314      -1.48513919       3.12334200
I        6.16297419      22.37040510       0.03360092      -0.12675732       0.24670041       0.13060383      -1.97865891       2.49539735      -2.71651937
I       13.49497768       0.30725745       9.62472812      -0.05930745      -0.16058865      -0.02910232      -1.00395199       0.82689451       0.03924484
I        1.03495483      25.37112909       2.97681669      -0.04835868      -0.06810696      -0.04637501       0.44748284       0.60568535      -1.60060050
I        6.27742650       0.68818556       2.93602947       0.18918314      -0.07835777      -0.00128863      -0.31808060       3.13318727      -0.55896942
I        5.98773992      25.58274848       9.34932667       0.04310918      -0.06077761       0.07941551       0.66061334      -2.21106767      -3.83268409
Cs       9.41184197      22.12760223      15.93726163      -0.04207984      -0.13691404       0.15031263       1.82959798      -0.01583753      -1.68285244
Cs       3.26179473       3.67090152      22.07519288      -0.03408278       0.02405547      -0.04344756       1.55541122      -1.28319599       0.93789324
Cs       2.90985101      22.55183316      22.27157019       0.15786871      -0.02618022       0.03421433      -2.56874714      -0.61571941      -2.08685335
Cs      10.05566332       2.32152969      15.89251977      -0.20946646       0.00528837       0.26247318       0.30936530      -4.91023036       1.58884719
Pb      -0.08455777       0.03791194      19.18398833       0.43131445       0.10879868       0.08172020      -0.89124531       0.68749308       1.20908886
Pb       6.54658907       0.00557476      19.23702508       0.01205700      -0.00524960       0.20704181      -0.42270831       1.99288342       0.95417948
Pb       0.44535698      -0.39706648      12.77179605      -0.02174552      -0.10062701       0.12182586       0.00232563       0.42757668      -0.62631506
Pb       6.67808572      -0.15715816      12.75308986       0.03624408       0.11764637      -0.01446530       6.52577589      -2.50387439      -2.71723665
I        3.52272463       0.83856343      19.71118659      -0.08017355      -0.15168643      -0.02910809       1.37353185       3.52687231      -0.35681002
I        9.95813690      24.80862950      18.53388779      -0.16785593      -0.04328399       0.04057534       0.75120894      -3.16532997       0.16758010
I        5.69703768      22.23869727      18.33071164      -0.10288001       0.41426863      -0.04152811       1.26737678      -2.46184116      -0.76951339
I        7.26090721       2.90979235      20.02446053      -0.18101551       0.15438614      -0.18772170      -2.74899095      -0.34616139       2.37549325
I       10.01963577      23.95407603      12.87577819      -0.11668321       0.29410651      -0.20126047       2.42811334       0.58489746       2.22715563
I        3.38327270       1.08093569      25.22019365      -0.23696216      -0.24460173      -0.04534203      -1.52425309      -2.29814475      -0.85846661
I        6.95319004       3.07242034      25.19504119       0.08342477       0.05841876      -0.15752007      -0.55670671      -1.20910888      -2.32901234
I        5.76077260      22.42068461      13.15227358      -0.02473105      -0.27847997      -0.02384218      -2.50656363      -2.48396103       0.18956829
I       11.90307604       0.32650928      22.22264788       0.18581122      -0.21683342       0.58752224       0.22260842      -0.76982222       1.37681744
I        1.11853990      24.70878324      16.02714636      -0.09801544       0.14700840      -0.08555015      -3.78353481      -3.45116159       2.22397200
I        6.56146171      -0.31439121      16.10134402       0.00077606       0.17634076      -0.23817803       0.37762866      -0.11709884       2.63555506
I        7.12981402      24.42135467      22.14347060      -0.12032389      -0.02381497      -0.03126077       0.96012941      -4.72163501      -2.66834825
Cs      15.78382220       3.34370032       3.41984429       0.01191401       0.14037278      -0.05635927      -2.71903532       3.08965710      -1.37541602
Cs       9.35771431       9.80361616       9.20144464       0.09505802      -0.02095758       0.08795932      -1.61885796      -3.44318455      -1.40802125
N       10.17678717       2.29869233       8.72190202       1.20099262       0.99190890       1.59460113      -0.39807328       0.55521863       0.78623239
C       10.75706825       3.32980468       9.64030160       1.44244603      -0.61926183       0.46231336      -0.86972943      -0.22749566      -0.29714205
H       10.41860668       3.15640249      10.70009848       0.17645619       0.21292928      -1.03829968      -0.02904139       0.23866512      -0.13655384
H       10.49629290       4.28261271       9.24362871      -0.64864382       1.04912773      -0.04998588      -0.04800499       0.29418989       0.13959097
H       11.88060043       3.33156526       9.55904111      -0.78599342      -0.41357355       0.30103710      -0.15564399      -0.22073839      -0.11803455
C        9.64228915       1.20527018       9.47410273      -1.09304928      -0.20103622       1.85995450       0.37527954       0.35805609      -0.27717831
H        9.25333002       0.53182218       8.75980148      -0.67098460      -1.21793696      -0.61175508       0.17729502       0.21065197       0.03155329
H        8.83773024       1.65554767      10.08019054      -0.02592778      -0.49372222       0.01020631      -0.07629543       0.21144248       0.08224330
H       10.36790918       0.72552487      10.15176956       0.17440355       0.21277045      -0.30777583       0.07505556       0.09949431      -0.20125082
H       10.87464039       1.89459609       8.11642385       0.61979466       0.24477478      -1.07715260      -0.08971549      -0.14019823       0.11595984
H        9.42487642       2.75774981       8.22521320      -0.59046803       0.17570072      -1.15946176      -0.18615732      -0.06557578       0.11294334
Cs      15.80527765       9.48883875       3.10356295       0.05488416       0.02647982       0.06132974       2.30560389       1.33267766      -4.38283344
Pb       6.49929671       6.16255233       6.34753946      -0.00006360      -0.23522728      -0.09076033      -1.87404880       4.22416247       1.32726779
Pb      12.69440522       6.57572829       6.61669058       0.14351697       0.09167154       0.11677874       2.52712158      -3.71248564      -1.97445289
Pb       6.13331821       6.51579483      -0.59510045       0.18085473      -0.10542684       0.20160332       3.89523011       2.81076347       2.01119273
Pb      12.63869371       6.47024441       0.48219811       0.12356540       0.18447356      -0.63624070       1.39182297       0.06619643       0.32101274
I        9.34117441       7.51624551       6.16209718       0.11978367      -0.22322244       0.43329022       0.12114555       1.76185459      -3.09320328
I       15.85360580       6.74820459       6.22801442      -0.05105916      -0.19467365      -0.01170027       0.83773371       0.65222372      -0.06377918
I       12.24871893       3.39042902       5.79275521       0.00818552       0.12289380      -0.06569272      -1.50517115      -1.38148642       0.13556083
I       13.25391374       9.95095893       6.64018110      -0.08506172      -0.32557882       0.13981762       2.25314607       0.85950411       2.28482464
I       16.01204248       5.98822020       0.17810191      -0.33148145       0.04623001       0.07425727       2.17649599       1.91930584      -0.52003024
I        9.73208141       7.10410037      12.47261688       0.31935535       0.12540381      -0.11063616      -0.62611207      -1.35439521       0.80649901
I       13.45147779       9.66166605      12.12667494      -0.05063946      -0.02252242       0.20912400      -2.33346044      -1.18071835      -1.67082110
I       12.05633650       3.49964843      -0.03122613       0.09113743      -0.28549076       0.02812017       2.16783384       2.84113782      -2.46385032
I       18.63426267       6.86724234       9.70445648      -0.05374720       0.08428418      -0.11856212      -1.11495209       2.22592983       2.11770688
I        6.13343287       5.69586599       2.84813486       0.10373042       0.23773385       0.14071598      -2.58349159       0.82021648       1.55863313
I       12.63787410       6.93890435       3.38525776      -0.03926426       0.06796345       0.02682474       1.03828129      -1.41366074       0.13245996
I       13.16090195       6.11512056       9.67889407       0.11335013       0.16348035       0.02000333       0.77531242       1.25165553      -0.82172049
Cs      15.67627792       2.86141933      16.36103294      -0.02134035       0.08378297      -0.08652957      -0.93289900       3.39685104      -0.85277619
Cs       9.89232166       9.76822307      23.19006081      -0.05796671       0.01710063      -0.13728792       4.55883015      -4.14454691      -2.03282370
Cs      10.21342920       3.39939187      22.01733835      -0.16733001       0.28251884       0.31303533       1.82380102      -1.09688820       0.21046512
Cs      15.59587733       9.31873696      15.86637435       0.03422467       0.11638862      -0.06398350      -0.12953387      -0.30492987       2.03001355
Pb       6.59463617       6.55698156      19.02785792      -0.05997125      -0.18232949       0.10636519       5.29869605      -0.97292901      -2.73329741
Pb      13.03487867       6.36831718      19.57548693      -0.20243980       0.14714921      -0.38260815      -0.57667474      -3.44702152       0.95314609
Pb       6.81681660       6.49696248      12.70666812      -0.25098003      -0.27851555       0.18338477       3.79011749       1.17383661      -2.80398303
Pb      12.95396862       6.20755095      13.12048642      -0.03221768       0.02530392      -0.45368943      -4.99629272      -0.34642623      -1.19839406
I        9.57968011       6.86295069      20.33369162       0.03153422       0.10415180      -0.19937325       1.42661039       0.64959885       0.10622103
I       15.92296082       6.52322457      18.29235824       0.12748455      -0.25814323       0.17011700      -1.39054068       1.37022774      -0.60288857
I       12.32080307       3.09186774      18.97762788       0.03191529       0.31722111      -0.18761167       0.18564907       0.90382438      -0.77676559
I       13.60118241       9.52393276      19.62609516      -0.12000340       0.12165505      -0.00160672       0.73866540      -0.14231951      -1.05604242
I       16.10332717       5.57755588      13.24699004      -0.13306474       0.05836597       0.08999672       0.53316428      -0.44880637      -1.33838213
I        9.23138539       6.63223734      24.80245964       0.20137823      -0.14086994       0.29135481       0.51039646      -3.77609611       0.57512231
I       13.10190087       9.52563629      25.34632910       0.00474823      -0.07974488       0.12170476      -3.59225915      -2.47672253       0.12296006
I       12.37391282       3.05375510      13.29201410       0.14132322       0.20796155      -0.07988960       0.92109056      -1.51145542      -1.91553845
I       19.12343670       6.88255923      22.08965478      -0.21582616       0.06823002       0.26798996       1.09757280       0.09053427       1.73659360
I        7.62429768       5.91728991      16.19767395      -0.01616125       0.05035355       0.01499883      -1.21928705       1.35180472      -3.14652395
I       12.31581592       6.69328737      15.98988403       0.02641967       0.06064199       0.29088503      -0.02100876       0.19703535      -0.51605946
I       13.17510809       6.09298881      22.48284489       0.21578342      -0.06635641       0.34379803      -2.34692059       1.61938854       0.98153842
Cs      22.27631231       9.67599643       2.70081796      -0.05384184      -0.05094382       0.02658838      -0.63953816      -0.23767740      -1.87913346
Cs      15.85161334      16.49579110       9.80452714       0.09566317      -0.00170276      -0.19510177      -0.03297611       0.63847720       0.76136855
Cs      16.31524510      10.05592330       9.84606335       0.00523819      -0.06520170      -0.13249016      -0.25070535      -0.83519772      -2.34836571
N       22.19568143      15.40268433       3.18887845       0.75060309       1.33948992       0.74912767       0.20239883       0.05028778       0.37222690
C       21.29977470      15.96343531       4.28789124       2.41411706       0.54325769       0.09784883       0.82139111      -0.47913790       0.01524021
H       20.31861939      15.84178917       3.89460155      -1.15220347       0.55640197      -0.00993541       0.07886295      -0.19011674       0.11909964
H       21.71664998      16.98501470       4.62022311      -0.99423580      -1.03599586      -0.92643737      -0.19254712      -0.39567090       0.07614867
H       21.48268870      15.32459517       5.14191775      -0.27370897      -0.45067553       0.39879381      -0.05734517       0.21994022       0.09245060
C       22.33835097      16.30483494       2.00379015      -1.41357015       1.21677810      -0.01362264      -0.55967124       0.05141787      -0.55987249