520
Lattice="26.016137719712788 -0.17603588856782967 0.13528784781762218 -0.07948344736526786 25.872342045650793 0.06673383916447 0.007324786980725865 0.08479124901159345 26.013885119944252" Properties=species:S:1:pos:R:3:forces:R:3:momenta:R:3 energy=-1953.22216796875 stress="0.0019900689367204905 -0.0002293667494086549 -0.0004594725032802671 -0.0002293667494086549 0.0011305678635835648 -2.5019877284648828e-05 -0.0004594725032802671 -2.5019877284648828e-05 0.0012734727934002876" pbc="T T T"
N        9.48426426      10.10798329       2.04317562       1.49464680       0.62649244       0.03568272      -0.48285215       0.23263499      -0.87064756
C       10.94720211       9.63127381       2.16616434      -0.92568195       0.53318986      -1.38342191      -0.53355903      -0.23974298       0.19731192
H       11.13417238       8.97916077       1.29694600       0.06706383       0.19936465      -0.01918011       0.11676757      -0.05426759      -0.03155297
H       11.03124291       8.99998747       3.01458637       0.13776138      -0.36619813       1.22163506       0.10039973      -0.08125351       0.22459699
H       11.62766253      10.51051451       2.11855371      -0.39012361      -0.43505877       0.41113098      -0.05489522       0.01063219      -0.17308285
C        8.75692985      10.37898057       3.33503321      -0.55924537      -0.67208944      -1.52187065      -0.15266956      -0.50820043      -0.61231288
H        8.59774537       9.44469142       3.87542720      -0.37384208      -0.35289431      -0.28069586      -0.25985871       0.01482851      -0.33425523
H        7.82191063      10.91285803       3.05613060       0.43554500      -0.23223805       0.52510283      -0.18757365       0.12877186      -0.08670950
H        9.43047017      10.89722249       3.94370278       0.93414507       1.46793356       0.96411381       0.01311319       0.03905107       0.26675746
H        8.91925297       9.49046800       1.45721003      -0.11113107      -0.55001069      -0.23419682       0.02916142       0.01868164      -0.11985268
H        9.61809854      10.98257776       1.45203033      -0.66794825      -0.05642474       0.46312707       0.11388584       0.09036341      -0.03240560
Cs       2.75019717      16.18633794      10.07479463       0.05807638       0.06663555      -0.11163870      -3.67425192       4.21285162      -0.03540649
N        3.15977603       9.86307295       9.13463612      -2.24351625       0.39643508       1.27519363      -0.44540354      -0.97792918       1.17371757
C        1.76734094      10.54304629       9.39480809       0.88049858       0.42174353      -0.27342879       0.59123344       0.01270441      -0.02964649
H        0.97116293       9.89621688       9.06897787      -0.27942906      -0.70156151       0.21105892       0.15301476       0.23998361      -0.31681091
H        1.71254339      11.41681944       8.73703950       0.16516606       0.14635186       0.05610931       0.22192137       0.28659311      -0.02521706
H        1.69073219      10.89046739      10.46516540       0.14517144      -0.65451098      -0.89515854       0.14164740      -0.08808040      -0.10812929
C        3.28710475       8.63634106      10.04783783       2.02299684      -0.27796100      -1.39417582       0.79283704      -0.40968871       0.11102883
H        3.23189458       8.87849757      11.10575027       0.00406560       0.66084637       0.18773275      -0.25045101       0.08685610      -0.00030654
H        4.33486570       8.24337068       9.79815415      -1.34427207       0.08588241       0.49406416      -0.07154298       0.17761994       0.17223285
H        2.50629894       7.88219486       9.86304145       0.07906290       0.25619019      -0.46401898       0.05276848       0.07314353       0.05520109
H        3.73125630      10.65310511       9.46262964       0.91562714      -0.37381706      -0.16245236      -0.00025525       0.15505209       0.08897519
H        3.35113683       9.68433011       8.10979986      -0.18443578       0.04648774       0.88087576      -0.16443291       0.23606151      -0.02164990
N        8.21910410      16.00931365       3.25281105      -0.74565552      -2.37702105      -0.49719017       0.26394334      -0.14451628       0.13441576
C        9.34803500      16.09490090       2.26440591       0.51887078       1.15834735       1.27622998      -0.93421550      -0.32215572       0.43609467
H        9.94428798      17.00458397       2.52857861      -0.18004046      -0.65162912      -0.17344987      -0.12459932      -0.02124296      -0.11535820
H        8.92466679      16.21685665       1.29697866      -0.38622336       0.14503707      -1.16619996       0.28385994       0.06179171       0.12215022
H        9.97936655      15.19742317       2.29167810      -0.14265796      -0.04820874       0.18268513       0.15117245       0.37435009      -0.03847329
C        8.64635681      15.45004469       4.56462383       1.08299361       0.77417169      -0.79359111      -0.14594504       0.03250647      -0.10761814
H        7.89780222      15.48589672       5.33680495      -0.49785096       0.12880610       0.18564655       0.03181379      -0.10469041      -0.02004416
H        9.53425145      16.04363616       4.80395800      -0.04325338       0.02412195       0.45093807      -0.02605157      -0.31396394       0.02512772
H        8.97772510      14.46018829       4.37331966       0.30568014      -1.26019259      -0.04509212      -0.24228004      -0.08225061       0.13834273
H        7.46642054      15.37734894       2.80383963       0.61252761       0.84963562       0.73422907      -0.14534613       0.06900672      -0.27326313
H        7.78691735      16.87938642       3.50150438      -0.51936022       1.25881660      -0.42403231      -0.13552148       0.10175696      -0.00664150
Pb      -0.36272616      13.15827786       6.30513710      -0.07089519      -0.02932426       0.05258680       2.76250441       0.62711044       1.46580646
Pb       6.02160333      12.97297711       7.02975138       0.23488094      -0.08746156       0.01133927      -0.53428056       0.26686523       0.06446497
Pb       0.08461714      12.90048491       0.00043360      -0.12955903       0.29764243      -0.11871904       2.01905685      -0.22910342      -0.51776138
Pb       6.08382349      13.02294439       0.41341604       0.02006710       0.10553358      -0.38438923      -2.90816783       1.60432273      -1.44300017
I        3.01358303      13.42183024       6.72231969      -0.28983558       0.09140769      -0.02116001      -0.98300509       1.45087834      -0.80770255
I        9.42384042      12.41041681       6.86903006       0.13131257       0.08253154       0.16301154       2.37473912      -0.60028415      -1.31183360
I        5.81942546       9.89089306       6.15646364      -0.14643796      -0.09887140       0.24809956       2.33553880       0.77646789      -2.93948400
I        6.00603447      16.19369935       7.10045192      -0.08760350       0.19583884       0.10788778       4.19773859       1.69761119      -2.02514253
I        9.75586073      12.84353855      -0.22206293       0.08541019       0.12441419       0.14501279       1.94195418       0.78506352      -0.71333130
I        2.79270466      13.79363245      12.93779612      -0.03411510       0.00645999       0.22741100      -2.13273427      -0.14577810      -0.53612728
I        6.96701495      16.07986331      12.98430520       0.03198265      -0.13518554      -0.00680063       1.72104402      -3.63688981      -0.91862292
I        6.16753129       9.84805876       0.11024819      -0.02870025       0.01472362       0.03840498      -1.17536164      -1.31508980       1.53319033
I       12.64908070      12.84521559       9.92575724      -0.12632067       0.09065078      -0.06258203       0.46751605      -0.01158046      -0.23834267
I        0.24155982      13.53901491       3.30945128       0.37852963      -0.31254477      -0.04602276      -0.08483968      -2.86553432      -2.19707338
I        5.54051494      13.16543500       3.39433985      -0.04810964       0.07678413       0.10862943       0.13265981       2.42082942       1.09256636
I        5.64735405      13.12133551      10.20305942       0.16284769      -0.13343516      -0.16575605      -1.27234427      -1.85084445       0.80629221
Cs       8.91428044       9.58629422      16.10291140       0.10388571      -0.00526011      -0.05647275       3.29143227      -0.09783150       1.59115549
Cs       3.69008649      16.45127482      22.70838706      -0.05417416      -0.01003435       0.08964153       0.19296875       0.44179931      -0.49767420
N        3.16813476       9.72555498      22.82050561      -0.82244051       0.27997006       0.31486863      -0.20789567      -0.64904458       0.08562646
C        3.26688415       8.23559702      22.97141429       0.43983829       0.07662583      -0.10736207       0.18134905      -0.71821688      -0.62360107
H        2.65776727       7.77196503      22.18857804       0.22695716      -0.03601175      -0.10533706      -0.07779185      -0.16948219       0.00970493
H        2.86907089       7.96643441      23.94628852      -0.09645012      -0.08551880       0.21456695       0.10451975      -0.01536938       0.18029516
H        4.35521874       7.95959520      22.92934439      -0.81636607       0.12810508      -0.17512476      -0.03760946      -0.00346330      -0.27369669
C        3.72276307      10.25914452      21.56776873       3.14689098      -0.24185363      -0.63500766      -0.89695019      -0.46796073      -0.18776577
H        4.12379508      11.31175334      21.71859605      -0.43663532      -1.08621301      -0.06617278      -0.03845119       0.07476657       0.03834258
H        3.09308757      10.24298727      20.69333839      -1.01235911      -0.10006456      -0.02708956      -0.02082533      -0.33990237       0.24679089
H        4.60586972       9.54111433      21.27417394      -1.19075496       1.34946015       0.56052778       0.04747781       0.14081255       0.06850246
H        3.69243094      10.13927884      23.60325868       0.07980287       0.16740746       0.15655868       0.34817978      -0.12999224      -0.13958101
H        2.19009009      10.07931465      22.95470074       0.42552171      -0.33763133      -0.05580645       0.05882507       0.02048938      -0.23691391
Cs       9.33469831      16.55326227      15.90073715       0.23200607      -0.22093481       0.07954640       3.41961854       2.29844024       0.91957095
Pb      -0.18128203      13.55861211      19.56535487      -0.02326424      -0.35049866      -0.02500934      -3.00222180      -3.71328847       2.70726819
Pb       6.24857743      13.08249766      19.75143448       0.17315209       0.05117326      -0.05068004       0.23604519       1.55472948      -0.29541533
Pb      -0.34177689      13.64847475      12.97375143       0.09513149      -0.37481198       0.23836567       0.67963565       2.30462417       1.96145962
Pb       6.52538564      12.81091661      13.33041364      -0.33905040       0.29557648      -0.01251572       0.72546562       0.55998157       1.33985881
I        3.12513750      13.89807965      19.40453358      -0.18464183       0.12325031       0.08366473      -1.93056856       1.22806927      -3.65975422
I        9.46611664      12.97793733      19.89061811       0.07690806      -0.03333434      -0.02911792      -0.13064857      -0.71282519      -0.93046703
I        6.35610765       9.86633230      18.95822501      -0.07804745      -0.10590040       0.05940626       0.09798830       0.40050980       2.26500968
I        6.94040910      16.48680092      20.09404197      -0.24451254      -0.09441142      -0.14046819      -1.81971319       0.76291786      -0.53122521
I        9.44722651      12.25546330      13.35231083       0.23652100      -0.06481944      -0.15908314       2.11804321       1.49176684       5.08583445
I        3.14787364      12.99937552      25.19811454       0.11290550      -0.05602743       0.14361419       1.95421707       1.86029091      -0.16317865
I        5.50775255      16.45558209      26.47446073       0.09211940       0.06651487      -0.05624799       1.27536801       2.63959089       2.04182174
I        6.37437252       9.31284262      13.34368431      -0.08683127       0.55737108      -0.24814067      -0.10101715       0.00610040       3.27324083
I       13.25135454      13.63714402      22.62580727       0.09089358       0.00162963       0.33808862      -2.63548771       0.72751019      -1.64689374
I       -0.33133499      13.80958913      16.43322918       0.04468252      -0.00890302      -0.10100355      -0.72239286       0.65891556       0.42022137
I        6.73654366      13.53672865      16.43427546      -0.01265893       0.05421226       0.07213634       2.37062759      -3.10893275       1.35527455
I        6.60507804      13.60169982      22.97096982      -0.07465105       0.01105060      -0.04018453       1.13500004      -1.73190332       0.86191460
N       16.90781703      16.42754193       4.24198117      -1.19176488      -2.18384063      -1.71976245       0.68066511       1.67314690      -0.49736935
C       15.51184353      16.35125555       3.69270834      -0.93492578       0.49080272      -1.89979654       0.16354326       0.71882016       0.10167029
H       15.37225564      15.41366161       3.10068381       0.32743190       0.60934566       0.20663577       0.12099187       0.02578618      -0.13483173
H       15.39364880      17.27040371       3.03931251       0.15487509      -1.01215481       0.30276085      -0.02767808       0.10706432      -0.00715999
H       14.62652058      16.41745649       4.36387975       0.95872670      -0.11207114       0.46860814       0.19309963      -0.27444353       0.17045086
C       17.99189595      16.47725100       3.19790536      -1.23058896       0.59797803      -0.36101771       0.42784508       0.14289863      -0.55384857
H       17.86725565      15.67748177       2.44511721      -0.20856368       0.09149460       0.38232986       0.01658989      -0.08205697      -0.02199906
H       18.94035206      16.39611352       3.67526067       0.93718065      -0.09154593       0.49212776       0.01307119      -0.04337596       0.01565676
H       17.88983855      17.45950238       2.71907364       0.09981942      -0.08100515      -0.10951688       0.13890628       0.04313946      -0.24230410
H       17.04479313      15.62163535       4.83871912       0.29181878      -0.86469719       0.59976306       0.19524021      -0.21796383      -0.04782973
H       16.83081549      17.18078545       4.84918994       0.67429983       2.47351644       1.69835672      -0.05041026      -0.18891388       0.21720690
Cs      10.00902626      22.56556934      10.03604792      -0.01124378       0.10941047      -0.02937268       2.38309672      -0.16795204      -1.32140418
Cs       9.76743503      16.62852112      10.08683128       0.10179126      -0.15984527       0.01287517      -1.61061710      -0.37198799       0.76423837
Cs      15.88987598      22.40095509       3.29995820       0.09120841       0.17738315      -0.04820523       0.81529726      -3.58355876      -3.56061067
Pb       6.49816323      19.43092905       7.20142105      -0.56380603       0.08961684      -0.31520281      -0.37768502       3.26117563       2.42735691
Pb      12.93837487      19.56004974       6.61782783       0.03546752       0.10967127      -0.11848940      -1.44501479      -1.39378695      -2.19870045
Pb       6.35313687      19.52762653       0.47185133      -0.28923396      -0.01926032      -0.17102593       0.35342540       3.52509239      -1.60951108
Pb      13.13912659      19.50528295      -0.05416094      -0.04581699      -0.15635733      -0.14375140       4.72330452       0.27554303       0.02386798
I        9.36880603      19.90343977       7.01774073       0.52371094       0.10438103      -0.09184797      -0.44998961      -3.41673394       0.58796243
I       16.03716516      19.07205398       7.18857134       0.00729810      -0.09291265      -0.15630716      -3.19117386      -1.95079315      -1.24984554
I       11.94072600      16.49722389       6.44141520       0.03026179       0.10367614       0.07830766      -0.22064714       1.63595215       0.50343432
I       13.61704633      22.79489434       6.43948540      -0.16284014       0.05440129       0.12611434      -3.46139458       1.03004114       1.57085417
I       16.44103167      18.78262753      -0.59038623      -0.04111383       0.13161780       0.09686166      -0.93188265       3.05753585      -0.75013903
I        9.76707554      19.90148927      12.89964442       0.06698462      -0.01255735      -0.01557882      -0.80140189       0.01258268      -2.82369602
I       13.50141090      22.57812398      13.34153738       0.01138877       0.08637484      -0.19308879      -0.28043824       2.04909077      -0.86642669
I       12.38527313      16.38506621      -0.56913127       0.04957645      -0.10751874       0.06396963      -0.02729910       1.29633298       0.80218808
I       19.30042348      20.25964962       9.75879062       0.09098104      -0.16990097       0.07909464       0.17635735      -3.49244793      -0.93268941
I        5.86568099      19.45815682       3.58212654       0.04319853      -0.02801924       0.10053703      -0.32970665       1.34473246       0.57694675
I       13.38711490      19.69061808       3.10161395      -0.02918333      -0.12912992       0.17399745       2.76421206       3.03207845      -1.14497286
I       12.60452982      19.41514023       9.74562728      -0.05082216       0.16673812       0.06031107      -2.16037826      -0.70201774       0.67099746
Cs      16.12787965      15.84203854      16.14738536      -0.20385535      -0.12873780      -0.01878573      -0.30989292       2.69520885      -1.54206259
Cs       9.68359589      22.96859233      22.89551914      -0.01398511       0.01309368       0.12405219      -3.07384391       1.13154808       1.45261989
Cs       9.45548442      16.62306416      22.66903186       0.14300084       0.03514982       0.18959725      -0.57793988      -1.84499583       2.95444473
Cs      15.96754430      21.95185219      16.19583217       0.03107232      -0.00842693       0.04174457       0.27172059       1.95959175      -0.50712077
Pb       6.13222063      19.46445511      19.52608661       0.16398096       0.13994803       0.30250421      -1.66268027      -1.01041489      -3.82694765
Pb      12.72341079      19.85483056      19.62546671       0.01896049      -0.10482210      -0.04045268      -1.46762821      -6.04953306      -0.14529886
Pb       6.64472423      19.66458103      13.20816652      -0.23390035      -0.49300559       0.20104616      -3.25244003      -0.79270535       8.16942354
Pb      13.03624716      19.48261389      12.94383037      -0.11239943      -0.03969481       0.20151252      -1.38039164      -0.04645678       1.42475992
I        9.47070397      20.11606570      20.56138672       0.00419316       0.00055512      -0.16528860       0.35275445      -1.02460419       0.81663367
I       15.66376017      18.63221035      18.99929539       0.22366500       0.07851624       0.13669351       0.13941506       0.94011618      -3.08162765
I       11.93196008      16.68028160      19.70996645       0.00337585      -0.15005953      -0.06709226      -0.40768438      -1.20288980      -3.96926617
I       14.00718501      22.80526760      19.59704667      -0.10773119       0.11010940      -0.01171502      -0.41064801      -2.75467543       0.67520540
I       16.20574896      19.20135039      12.99590588      -0.03438112       0.09433012       0.10036291      -2.03562079      -1.55820434      -1.30112756
I        9.98895414      19.92228293      25.23024244      -0.06344908       0.03875096       0.14300461      -1.00304092       0.79655105      -1.79564728
I       14.14136497      22.51415021      25.82593043      -0.06578691       0.50168575       0.05428089      -2.65357220       2.78094503      -0.74439726
I       12.27705528      16.25379333      13.43667324       0.08585189      -0.05578184      -0.18355560       0.78234423      -0.95330694       0.30818112
I       19.69227497      20.09929882      22.57616762      -0.06810239       0.01371860      -0.22430348       0.37233667       2.67547334       2.83288160
I        6.89890954      19.04471043      16.67813355      -0.18532813       0.05506935      -0.19618364      -1.09098250      -1.54535587      -0.14983219
I       12.65236275      19.75819858      16.36970905      -0.00402881      -0.13545675      -0.16282807      -2.29197760      -0.28131354      -0.46323964
I       13.38608833      19.88147851      22.66279810       0.08467655      -0.03485839       0.06631817      -0.47064493      -0.62983042       0.05867946
N        9.04320722      22.54953039       2.55059338       0.20416223      -1.46116777       2.15364412      -0.78780345       0.81488219       0.32026273
C        8.30632404      23.10078132       3.74516882      -0.14446002       1.12625179      -1.60446112      -0.45180739       0.24380633       0.28656332
H        8.48099854      22.48243950       4.56800782       0.42389534      -1.20295115       1.42845356      -0.16963611      -0.05247709       0.02680327
H        7.24148529      23.10634362       3.50747790      -0.18291622       0.15092664      -0.04695669       0.09278745      -0.10232183       0.07446712
H        8.66223287      24.12313055       3.95936959       0.01562267      -0.23760955      -0.12117514      -0.12230107       0.16050136      -0.24094183
C       10.39411763      21.99336904       2.92915576      -0.66936974      -0.31381576      -0.04813772      -0.26659743       1.01665163      -0.16896938
H       10.98716862      22.82764107       3.26553614       0.36782662       0.33931976       0.56042970       0.03577904      -0.00574894       0.03944346
H       10.85771595      21.62260013       2.00213805      -0.10909717      -0.36967283       0.31290866      -0.01160386      -0.00866216       0.02091140
H       10.19455393      21.21949595       3.72754748       0.55039673       0.65461682      -0.79924822       0.07097410      -0.15178832       0.00946102
H        9.14023577      23.26138814       1.85949915       0.05862075       1.09120061      -1.36618458      -0.13699369       0.15979115       0.22495994
H        8.53329687      21.73523741       2.19586727      -0.42902825       0.16668402      -0.40407939      -0.07529376      -0.09690566      -0.15643332
Cs       3.19433783       3.35590513       9.74672157      -0.03358102       0.05853588       0.00846331       0.54297697       0.33582331      -0.44961727
N        2.24254182      23.22555869       9.93117899       2.85382777       0.15751683       2.92277308       0.17883952      -1.47470029      -0.50654274
C        3.12075049      24.46312725      10.30182536      -2.96530868      -0.37331361       0.95089401       0.55838869      -0.58959861       0.47180428
H        3.90133331      24.47950530       9.59061012       1.19172207       0.15404443      -0.53024656       0.37441462       0.08966852      -0.24202350
H        3.33587941      24.34050059      11.37539042       0.70288654      -0.17774395      -0.35611880      -0.12806766       0.18981823      -0.09363221
H        2.47587422      25.38098281      10.27370471       0.34358542      -0.60577638      -0.37654866      -0.09841289       0.00809012       0.04905907
C        3.16778682      22.03445006       9.57827717      -0.49769599       0.77285580       0.84438940      -1.32846615       0.49232529       0.67364522
H        2.52090710      21.35954627       9.01622309       0.23253856      -0.46192990       0.14440716      -0.31963212       0.13504490      -0.21398767
H        3.60209853      21.62282272      10.53685777      -0.58496397       0.33307919      -0.91192242      -0.19058861       0.12071198      -0.01713119
H        3.99366235      22.40554730       8.93666900      -0.45674791      -0.03051091       0.23984723       0.02014602      -0.34430314       0.00950338
H        1.61872200      23.44998503       9.19552133      -1.11871937       0.43018236      -1.84861268       0.17609552       0.19030660       0.03706717
H        1.62458085      23.03007045      10.78369450       0.47580231      -0.20259633      -0.66771962       0.17734223       0.08303294      -0.05352359
Cs       9.53850906       2.32704271       3.49318358       0.01195091       0.06687734      -0.12105496       1.24183758      -1.50875199      -1.18035689
Pb      -0.32050749       0.24667259       6.47254616       0.15290090      -0.06096131      -0.09849384       1.05302108      -0.12590848      -1.80199743
Pb       6.19299343       0.20287479       6.54680830      -0.01590371      -0.07425044      -0.05657520      -0.50777891       1.80739404       1.78969352
Pb      -0.44857901      -0.22826434      -0.27818210       0.24878593       0.13149697       0.05419895      -4.07766127       0.88134396       0.91314047
Pb       6.26698727       0.03421469      -0.07673429       0.03433877       0.26068411       0.09527164      -0.14231887      -2.79069764      -2.02971090
I        3.03493381       0.88293410       7.07752484       0.07833606      -0.10925301      -0.19344056      -0.95376193      -1.61732226      -4.01062511
I        9.60453480      25.89719914       6.62740357       0.15790017      -0.08524878      -0.07756477      -2.82541733      -3.91327715      -0.60336775
I        5.95688765      22.76883487       6.90304859       0.01320966       0.09435373      -0.05381699      -1.24594868       2.30819701       2.54425904
I        7.13497263       3.47903442       6.59841879      -0.11953871      -0.18301238      -0.09572827       1.13797297      -0.55452896       1.60286230
I        9.49726410      25.36085295       0.19208425       0.06861732       0.10169023      -0.02721706      -1.37135148       3.03352333      -4.18062020
I        3.14376866       1.02547386      13.25071368       0.08897828      -0.05265842      -0.01056659       2.83614087      -0.67942470      -0.06276685
I        6.73437205       3.14008260      12.95216032       0.08450503       0.17133547      -0.06140425       0.49363010      -2.94269499       2.84228297
I        5.93736200      22.98578114       0.41898877      -0.03363463      -0.46771292      -0.01829456      -1.42422758       1.31388454      -1.53761980
I       12.98096309      -0.27149482       9.81131092      -0.03368073      -0.03477783      -0.06553148       0.20958493       0.66332125      -0.60737533
I        0.00331807      25.18286255       3.31713431       0.02926669       0.05064298      -0.02963162       0.61443863      -2.03634085       0.25745273
I        5.77101137      -0.09020660       3.31565299      -0.05170730       0.17628516       0.14798766      -0.30363202       1.57821355       2.01123109
I        7.10063377      25.83878337       9.73233631       0.03909066       0.03672605      -0.12083421       2.47181735       3.44305036      -0.18516983
N        9.81393234      23.54871603      16.24810215      -1.35465043      -1.74274492      -0.39324687       0.88115169      -0.47284448      -0.22716161
C       10.65032347      23.26821000      17.45072353      -0.00068182       0.82497324      -1.75498114      -1.08668679      -0.32616173       0.55846806
H       10.11219176      22.80490806      18.24082154      -0.96045382       0.02938491       0.84442580       0.08044772       0.03296652       0.13483888
H       11.03466582      24.25176839      17.57921349       0.92279913       0.67801766       1.35400075      -0.11755614       0.10633292       0.02777540
H       11.40330246      22.57484812      17.14873373       0.85443052      -0.53296631      -0.35220488       0.03783223       0.01456031       0.18461369
C        8.94660102      22.35023767      15.88709993       0.82057000      -0.50941897       0.38425149       0.41642925      -0.56090501      -0.24801670
H        9.49506650      21.42585838      16.16215196       0.11573114       0.45649840      -0.09549980      -0.04975367       0.15083926       0.13000424
H        8.77928203      22.29082060      14.81127659      -0.24395452       0.36232553      -0.07482345      -0.13200672      -0.46139806      -0.33113989
H        8.03303300      22.33635424      16.48918793      -0.12750379       0.34919160      -0.11222711      -0.09350093       0.23770523       0.01586778
H       10.34914338      23.87147638      15.43152100       0.53583351      -0.26371352      -0.32635388      -0.10930602       0.08285937       0.06427170
H        9.19178216      24.35125620      16.36512897      -0.63262611       0.43358676       0.55317458       0.00263518       0.17215538      -0.13309147
N        3.09633438       4.06621072      22.82231259       1.40446568       0.85003206       1.33850931       0.13194842       0.20656945       1.43339382
C        2.63225288       2.97270476      21.98503470      -0.55793130      -2.83071292       0.24936847      -0.64309927       0.27892987      -0.35524500
H        2.43694933       3.39160826      21.01412437      -0.66213870       0.10468798      -0.61625315       0.18396840      -0.27535506      -0.11817611
H        1.78297017       2.37467520      22.47732744       0.72410497       1.22078319      -0.64254855       0.12179751      -0.10010458       0.42506972
H        3.41298670       2.15584175      21.79922976      -0.32057333       1.18200192       0.53962352       0.03017109      -0.27729612       0.01005256
C        3.54162386       3.68617008      24.23720784      -0.26325411       0.67757276      -0.04744482       0.54597072      -0.24326120       0.27364433
H        4.25088096       2.85414123      24.20906799       0.23267711       0.12359123      -0.28044442      -0.07348304      -0.08646903       0.18796777
H        2.67678134       3.34745287      24.80697211      -0.37333190      -0.00875187      -0.18819425       0.02392861       0.24034094      -0.03157125