440
Lattice="25.711758666977058 0.13313737439284676 -0.04084410481657366 0.18428159979710518 25.509315683996597 0.0577185976487223 -0.10453363680416343 0.06271630893532078 25.790427123974126" Properties=species:S:1:pos:R:3:forces:R:3:momenta:R:3 energy=-1533.5467529296875 stress="0.0007530717994086444 -6.339877290884033e-05 -0.00022638772497884932 -6.339877290884033e-05 0.0005961433053016663 8.903181878849865e-05 -0.00022638772497884932 8.903181878849865e-05 0.0005364101962186397" pbc="T T T"
Cs       9.04769284       9.98617861       3.21937523       0.03843161      -0.11285450       0.13585889      -0.31774031      -1.10581133       2.29500847
Cs       4.11343778      16.52685561       9.81405676      -0.00347854       0.27899549      -0.06566342       0.47629262      -1.13664466      -1.44119791
Cs       3.11813030      10.47776431       9.47185649      -0.24097309      -0.01733127       0.15577787       1.60236132      -1.50889208       1.04727787
Cs       9.77961187      15.40911127       3.34040625      -0.07114250       0.09252028      -0.02371574       2.03587419       1.93837992       0.22049260
Pb      -0.05788681      12.82834437       6.30118977       0.22413162       0.00896844       0.04482720       2.22439409       1.53439651      -1.69399655
Pb       6.12666638      13.23255302       6.62614898       0.11320771      -0.20443499      -0.10063850       1.69725032      -3.70429638       0.70636641
Pb       0.32999750      12.45040995      -0.04197141      -0.05540514       0.07971423       0.05258267      -3.05932496      -1.07431722      -0.58484835
Pb       6.87998109      12.97508093      -0.10883147      -0.09172282      -0.19119629       0.07551585       1.69659540       1.74147870       1.27385948
I        2.89135914      14.06150694       7.26045649       0.17827121      -0.18449156      -0.14860145       1.24432676       2.12977185      -4.31068342
I        9.23906154      12.33101514       6.30907445       0.09440508       0.27601569      -0.05405035       2.51119274      -0.44881851       0.78663978
I        5.81121405      10.12791969       5.66683222      -0.08098707      -0.12861736       0.06606429       1.34427154       0.68552394       3.32105229
I        6.91606807      16.14030760       7.40318202       0.18306985       0.18761403      -0.06871645      -1.54024445       2.67533724       1.16304756
I       10.15236857      12.06449331       0.29141460      -0.19001078       0.11784057      -0.04875016       1.48679561      -5.51791884       2.64013006
I        3.14255161      14.19038229      12.29715866      -0.18769354      -0.20136578       0.23672408      -0.58497660      -0.13401918      -0.65608323
I        7.73569898      16.37744260      12.29940982      -0.24320235      -0.34810418       0.03867607       2.08750066      -0.97886642       0.76796155
I        6.44728516       9.54301729       0.38102644      -0.07030103       0.74217363       0.06089151       4.93490997       1.83468840      -1.93229046
I       12.23611595      13.18594260       9.33063703      -0.03260875       0.03359436       0.02085639       0.39305905      -1.99881058       1.45048560
I        0.61015012      12.30084455       3.09550696      -0.06330702       0.20004182       0.08437032       0.43617527      -3.64275488      -0.05257740
I        6.19667916      13.58023613       3.24604531       0.00483296      -0.03378990       0.12397421      -0.23059335      -1.31727033       0.88760759
I        6.18645107      12.26462302       9.74913918       0.23538053       0.19770941       0.07635910      -1.09029865       0.94732683      -0.76698432
Cs       9.45547467       9.66752050      15.86789538      -0.05941003      -0.01190553       0.05608634       1.09302543      -0.29453087       2.47211849
Cs       3.77131705      16.09309904      22.66204970      -0.04548213       0.07674628      -0.01024612      -1.06029198       2.30676039       2.56459079
Cs       3.94283615       9.83158213      22.99119194      -0.22494339       0.20888830      -0.00735340      -2.50120021       3.41526862      -1.94996004
Cs       9.26252842      15.29715806      16.38582285      -0.04910617       0.07598318      -0.04700635      -0.37214972       2.95732125       3.47177547
Pb      -0.12201076      12.69847845      19.58933423       0.29521833       0.15609598      -0.72621579       0.43827100      -0.16258087       0.32694285
Pb       6.01283838      12.87326244      19.32413063       0.17103202      -0.15663094      -0.03848234       1.20985643      -0.64897195       0.30586246
Pb       0.06359729      13.00867722      12.89476153      -0.08675327      -0.04575717       0.05783552      -0.29671523       1.95760686       1.73059032
Pb       6.20987009      13.29204757      12.89145209       0.14817395      -0.19057891      -0.04628750      -4.46536001       0.20131887      -1.98760112
I        3.16361391      12.99024885      20.47190547       0.08456503       0.01455270       0.00045625      -1.89012786      -0.73815206      -1.22101317
I        9.51346755      12.34884248      18.84197770      -0.06040351      -0.01483019       0.01963092       1.27219023       0.41995152      -1.11742786
I        5.97808649       9.61748977      19.75599344      -0.05534171      -0.00842862      -0.12744190       1.37800007      -0.70801704      -2.68453883
I        6.21848839      15.98174585      19.06957689       0.21140555       0.00431407       0.13427092       0.12390796       0.16378802       0.69876857
I        9.30786457      12.25775886      13.04603050       0.02834196       0.14281160      -0.00041557      -0.34856558      -1.66116213       2.26534312
I        3.38918987      13.18728226      25.33423891       0.10827998       0.01574340      -0.03878426       1.63074314      -0.86121631       4.45693484
I        7.18845057      15.97414075      25.99240309       0.02790774       0.37203646      -0.07621871       0.71370103      -1.94555589       0.68490886
I        5.92341298       9.83160528      13.53529442      -0.10887561       0.02987071       0.02055424      -0.60575059      -2.09757378      -2.55514851
I       13.63406223      13.33035071      22.18382696      -0.09146371      -0.14375498       0.16635373       3.23977800       1.90978138       1.99630664
I        0.41856474      12.32838658      16.07093837      -0.10301537       0.07698056      -0.21746729       2.21699409       1.40681154      -0.51988139
I        5.39519214      12.69142119      16.05479869       0.16735790      -0.00970776       0.10191441       2.50111883       0.68159237       1.15403578
I        7.14420930      12.69381481      22.60209923      -0.04361991      -0.00480399      -0.07283437      -2.82277164      -0.53810890       1.25284829
Cs      17.00793118      16.16604718       3.07553246      -0.04809882      -0.01579613       0.04385186      -0.08602360      -0.31705469       1.29539312
Cs       9.67015250      22.34377436       9.64831947      -0.01920956       0.07981477      -0.06524739      -3.39114372      -2.39639319       1.52514938
Cs      10.32366896      16.77563229       9.17116464      -0.13820666      -0.00290437       0.06767803       1.61389101       0.68003428       0.41352075
Cs      16.08177569      22.51154926       2.99303319       0.08559831       0.00661558      -0.07723638      -2.55116403       3.00580848      -0.05933615
Pb       6.58517159      19.29465985       6.40662774      -0.05862849       0.13949234       0.08992563      -0.03490735      -0.21058997      -2.81187984
Pb      12.98360454      19.52648828       6.48777785       0.27729080       0.20517966      -0.21812126       1.40804364      -1.20090893       0.41433528
Pb       6.67010592      19.32953916       0.21290054       0.28926245      -0.10789716      -0.03175111       1.58789795      -1.13919955       0.63996394
Pb      13.35992511      19.41298584       0.07345177      -0.12667836      -0.22380486       0.03527755       0.44967378      -0.96541153       0.59454834
I        9.96002577      20.16082178       6.28425015       0.01952971      -0.08057846       0.12070194       2.92392947       0.08207411      -0.00768284
I       16.50677560      18.25244887       6.19227580      -0.05415680       0.09108732       0.04748411      -2.81457751      -2.92138729      -3.54579682
I       12.56763168      16.25200665       6.05589158      -0.04278663       0.16796623      -0.05383822       0.88737140      -0.11522972       3.42273164
I       14.58854677      22.52458360       6.29495611      -0.24258839      -0.24454481       0.32389223       1.15319259      -0.90890426      -1.46233063
I       16.81078550      18.48339616       0.08142866      -0.23089194       0.06041213      -0.01892000       0.07000798      -1.01557989      -0.74024107
I        9.81851313      19.79754265      12.40197680       0.16351585       0.00703057      -0.08431248      -1.16940193       1.11296692      -1.31677747
I       12.82011481      23.01455059      13.42689553       0.11188165      -0.66163838      -0.15943706       1.35199725       2.59662784      -1.30048293
I       12.75061499      16.23233771       0.80875351      -0.02900588       0.02271058       0.26720529      -0.13985026       1.70567994       0.95794925
I       19.63903154      20.25668666       9.69479637      -0.02619434      -0.02176303      -0.36069402       0.05251252      -0.60053035      -1.21346577
I        7.08389039      18.40461538       3.50346288      -0.07989006       0.03289744      -0.21718534      -1.09585563      -1.60783028       2.25934764
I       13.41594328      19.67804681       3.23542436       0.00111189       0.01455171       0.09915885      -0.15607254       0.04935852      -1.55299844
I       13.41084681      19.58321939       9.72192899      -0.09533901       0.12794461      -0.38340563       1.99501556      -2.56972329      -1.34032984
N       16.21352555      15.24817578      16.01899585       2.20204286       0.11219004      -0.84267636       0.45581418      -0.03998639      -0.39029577
C       14.85564228      15.55751782      15.70242540      -2.82183766      -3.33435768       0.02488130      -0.06749073      -0.58149754       0.78313413
H       14.74315486      16.58873877      15.75359453      -0.36475483       2.04521670      -0.32420779       0.02058042      -0.11269936       0.08905441
H       14.21374692      15.11070462      16.53901893       0.51428685       0.51025643      -1.07094215       0.20482506       0.12398883       0.08000324
H       14.49626023      15.04194502      14.73378183       0.67080961       1.07628166       1.14414158       0.21297624      -0.10162091      -0.18681301
C       17.13506902      16.37841675      15.53722635      -1.35602948      -0.50193090      -2.11840377      -0.14025811       0.56844748      -0.13039676
H       16.97440996      16.70140430      14.43535554      -0.13268807      -1.11205828       1.27192826      -0.10504427      -0.23687625      -0.12804557
H       18.12674673      15.99006422      15.61433206       0.99508193       0.26686692       0.51201865       0.17230723       0.29178710      -0.01669362
H       16.78545748      17.24008392      16.06430921       0.49427134       0.72428920       0.97900000      -0.03648434      -0.03112478      -0.06424866
H       16.55260243      14.33445356      15.61393959      -0.26933178       0.62809619       0.37716805      -0.13334574       0.11551432       0.17253278
H       16.30878363      15.17362171      17.05678188       0.18606929      -0.26544558      -0.01838529      -0.01559765       0.08304610      -0.26098576
Cs       9.46778296      22.24822329      22.63093839       0.08067161       0.15010688       0.16978532      -0.81185808      -1.37192163      -0.31760115
N       10.44962546      16.47015208      22.44662591      -0.21140768      -1.89349070      -1.03924313      -0.42327270       0.16499033      -0.37679515
C        8.97035674      16.60815896      22.36903066       0.37448261       0.97548647      -1.22706911      -0.52327922      -0.26167091      -0.41594009
H        8.68692203      17.05768792      23.31331912      -0.66996956      -0.41240387       0.45836081      -0.04209663      -0.05430314       0.33413302
H        8.54859512      15.59991331      22.07273909       0.10239324       1.16775659       0.51964929       0.00841781      -0.18383776       0.07525033
H        8.79828424      17.42989640      21.60061985      -0.13048206      -1.14203411       0.47802649       0.07857203       0.45251695       0.20925373
C       10.87688048      15.53080469      23.57305477      -0.12353293       1.33867626      -1.70373694       0.61900563      -0.14481500      -0.36363743
H       10.59471563      14.53884571      23.25842349      -0.36436689      -0.54010147       0.32743534       0.07365470       0.07006070       0.22776581
H       10.46986483      15.96093221      24.48240193      -0.27789427      -0.31522934       0.33131606      -0.08032532       0.06556651      -0.09053616
H       11.93761552      15.67228991      23.51919228       0.99657889      -0.37735554       0.45703755      -0.20890116      -0.25024113       0.13565501
H       10.95421827      17.36230197      22.62638851      -0.07027937       0.21216766      -0.51067030       0.20647474       0.15238894      -0.18898711
H       10.72527609      16.04777158      21.45343543       0.30825263       0.99023493       1.64979630      -0.13194053       0.18934857      -0.24563189
Cs      15.64440561      23.03820027      16.41819395       0.14871684      -0.15367038      -0.01896411       0.54215376       0.30090154       2.31193197
Pb       6.54232017      19.32271232      19.19657594       0.12714908       0.00217831       0.08517897       0.84653538      -4.09076830      -0.28197163
Pb      12.93731978      19.42854598      19.03072137      -0.09131296      -0.02061468       0.21886510      -3.02841264      -0.13101072       1.92367275
Pb       6.47850589      19.30152621      12.96225804       0.22872051      -0.03360124      -0.06715185       5.55040667       5.51911883       0.03619419
Pb      13.02878472      19.62110090      12.92522432      -0.12777249      -0.12806971      -0.07075525      -2.10694279       0.12819403      -2.40711821
I        9.79636311      20.40575899      19.50516162       0.12608018      -0.14278737      -0.10897563      -1.86438813       0.93346573      -0.15324967
I       16.24379096      18.85064294      18.99896876      -0.10109311      -0.06126078       0.05170564       0.33312836       0.32411187      -2.23220713
I       11.92719633      16.12323797      19.20346124       0.03064417       0.08947227      -0.02953410       0.39383737      -3.18340088       0.66477272
I       13.38471682      22.62213273      19.56272391      -0.00984829      -0.29063281      -0.08217757      -0.96832367      -3.38910830       1.81419554
I       16.14243533      19.26633851      12.47939928       0.23617635      -0.07851189       0.10734336      -1.38074378      -1.03385418      -1.96921486
I        9.83498835      19.73765396      26.26186679      -0.03175643       0.04025283      -0.10550561       0.22027863      -1.57744590       3.87294676
I       13.17453271      22.55356520      25.64431088       0.06646260       0.01725617      -0.08113215      -2.92662661      -4.40883096       2.99985267
I       12.82299854      16.43656594      11.97326953      -0.05687423      -0.14178243       0.19412236      -0.39667919      -1.29149583      -1.70677138
I       20.04678602      19.65702583      22.70253675      -0.15632057      -0.17840952      -0.24785975      -0.83847875       0.73668424      -2.18309766
I        7.59403002      19.23203944      15.90959772      -0.22485192      -0.28403956       0.18161859      -2.80828669      -0.55280998       3.40559419
I       12.25161366      19.11901237      15.99155580       0.10024105       0.00498298       0.12499107       1.30431825       2.90050387       2.09583906
I       13.06727239      18.90370438      22.61620648      -0.09455409      -0.03839823      -0.07879177       2.03174567       1.89538677       2.26923365
Cs       9.25697607      23.08204298       3.02241836       0.08788765      -0.12186760      -0.04617935       1.61626012       2.55899232       2.59243310
N        3.21071012       5.17430224       9.37118126      -1.91809551      -0.90117684      -1.48664563      -0.44496996      -0.21114060       0.13359012
C        3.99322415       4.03391158       9.95469050       2.71564769       1.86899949      -0.94573515      -0.04854465      -0.35193080       0.60251278
H        4.11117614       3.29492428       9.17119867      -0.17508535      -0.40886840      -0.22811738      -0.12590412      -0.03503511      -0.01193762
H        3.59980428       3.61247986      10.84976675      -0.82459807      -0.09889524       0.77761353       0.31891099      -0.18775814      -0.09410309
H        5.03425470       4.46033271      10.14586078      -1.05533319      -0.60774593       0.04262483      -0.15156142       0.09655375       0.19208499
C        1.85588937       4.64846262       8.92145819      -1.62075395       0.14511540       1.71098182       0.47134407      -1.33408469      -0.15293273
H        1.35364130       5.43994268       8.36324859       0.11398659      -0.12761303      -0.48016303      -0.23968529       0.14502717       0.30249642
H        1.10819903       4.42693584       9.76138409       1.39255492       0.34201681      -0.36722447      -0.03486717      -0.03670613       0.02633674
H        1.94759097       3.69812422       8.41485985       0.46810572      -0.10426447      -0.59251320       0.00882441       0.06681109       0.00711271
H        3.56232827       5.57064463       8.44764496       0.58330620      -0.52038096       0.85225542       0.02050618      -0.02517174      -0.14748527
H        3.06208913       6.01640061       9.94131430       0.19881994      -0.02446207       0.60089581      -0.01037792       0.17727072      -0.14782079
Cs       3.73784457      22.56455561      10.46814705      -0.12397439      -0.05892604      -0.19616173      -0.74678526       1.80521673      -1.61019229
N        8.72194409       3.12021990       3.43066047       0.18880239      -0.24689507      -0.41748414       0.68565393       0.04630068      -1.80068357
C        9.73631605       2.00333740       3.69896906      -1.69251791       0.69047279      -2.33294089      -0.22185294       0.22533777       0.42939390
H        9.15610886       1.09729690       3.66260755      -0.04243594      -0.71991369      -0.01180605      -0.17719677      -0.09947730      -0.27223578
H       10.21163044       2.13370124       4.61015615       0.89125594       0.50403334       1.99754456      -0.01310341       0.24924881       0.11504513
H       10.46046623       2.07973811       2.88468787       0.05050516      -0.23001509      -0.07544163      -0.09890495      -0.18569020       0.43362247
C        9.44674516       4.38608385       3.06667821      -0.10598328      -0.40716436      -1.12113401      -0.49836003       0.03378634      -0.17975444
H        9.76352257       4.43821464       1.99941215      -0.40751611      -0.53191458       0.26175198       0.14765091       0.19621362       0.12755786
H       10.38490929       4.30873829       3.60087189       0.11821400       0.67104772       0.64521074      -0.27259380      -0.06451145       0.26476653
H        8.78333999       5.23896129       3.20929885       0.18263875       0.21265818       0.55505931       0.04965332      -0.14935798      -0.04113940
H        8.11460883       3.28125387       4.24312436       0.18722529       0.11618223       0.65635845       0.00335488       0.18529266      -0.14692197
H        7.99059491       2.81117211       2.73861332       0.71195988       0.12013945      -0.15986156       0.01268578       0.03123501      -0.35071803
Pb      -0.06333042       0.10727329       6.34630813       0.23653962       0.02567834       0.17781501      -0.82353710       2.78843132      -1.35350858
Pb       6.37533502       0.35804188       6.63948148       0.01215587      -0.08215531      -0.29282223      -1.32055278       0.33944629      -2.15635647
Pb      -0.42206560      -0.27602766      -0.14323167       0.28382091       0.25514375       0.17728842       1.39764359       3.98711013       1.20480705
Pb       6.22423388       0.25732415      -0.29080245       0.08107199       0.01735593      -0.08259785       0.99898440      -1.49792690       0.79354509
I        3.19186667       0.95107652       6.28264789       0.11830429      -0.01489053       0.04154815       0.05236423      -0.05846278      -3.12574163
I        9.80354142      24.75055274       6.41004405       0.01413417       0.01907906       0.14452881      -2.03532867      -4.63874893      -0.85730451
I        6.18082213      22.56538935       6.15886744      -0.02753632      -0.06857095      -0.06683393      -0.36047952      -1.07921195       4.32043862
I        6.57881947       3.51084724       6.82843779      -0.04752244       0.10188286      -0.11660113       1.13895630      -1.21205198       2.84857943
I        9.73142665      25.66564239      -0.13498964      -0.03175615      -0.10072342      -0.00062104       0.73055306       1.91197902      -2.02954933
I        3.01319301      -0.30964634      12.97330474       0.39049754      -0.03732988       0.06484546       2.60780587      -1.51903426       2.91911795
I        6.80702391       3.70675143      12.84672168      -0.00988673      -0.33743723       0.19639061      -0.21280145      -2.08936072       2.29253797
I        6.61374480      22.54963456      -0.09600334       0.14161715      -0.18223044      -0.09449084      -0.17320481      -0.91387230      -1.46851387
I       12.76055820      -0.33887435       9.71813227       0.04319436      -0.14991422       0.66341900       0.75764520       0.47727247      -3.48699029
I       -0.48804995      26.06690028       3.37853886       0.14145526      -0.04784778      -0.30080234       0.60200088       2.83442192       0.77373048
I        6.27186633       0.46343607       2.77855625      -0.14007930      -0.09149165       0.37078774       0.19885413      -0.42299778       2.49855806
I        6.82085885      25.11035536       9.60676963      -0.13564343      -0.12120820       0.27659198       0.63096958       5.94416946      -2.93017026
Cs       9.74499732      22.07832490      15.79877674       0.14335456       0.25720489       0.07511800      -0.31092573      -0.46330808      -0.09246912
Cs       3.54966158       3.33286675      22.80118799      -0.16905545      -0.07785999      -0.08464153       0.27242100       0.71947841      -1.44366642
Cs       3.17223255      22.10210801      22.46495401       0.19859043      -0.00511784       0.05207754      -1.42847588      -1.77195256      -0.36256995
Cs       9.54916672       2.90165819      16.03818323      -0.07379081       0.07121700       0.09237859      -0.08202723      -0.06480401       0.75322084
Pb      -0.04879264      -0.37691541      19.30820930      -0.15618004       0.38951181       0.40020795       1.50924625      -2.97127709       0.88116318
Pb       6.25004190       0.03625938      19.19232321       0.00910904      -0.00321747       0.02716921      -3.19558848       2.63874991      -1.13337796
Pb       0.05975157      -0.00208044      12.95118454      -0.27510086       0.20317185      -0.16059602       1.71519060       5.55569773       5.48644541
Pb       6.59762447       0.27835318      12.81029290      -0.47375819       0.01962273       0.08128115       0.55377985      -2.00990744       1.02144023
I        3.17747569       0.72895285      19.73309357      -0.05892601      -0.06035650       0.20970232      -2.56138595       0.94837491      -4.06935778
I        9.65806157      25.70941412      19.25621573       0.01864675      -0.18160330      -0.07915281       1.98607739       1.17934804       1.38866437
I        5.95395280      22.32936418      18.70846984      -0.06553445       0.20914794      -0.05993547       1.60598288       0.55624387       0.18041953
I        6.87668288       3.18080351      19.51596043      -0.03091589       0.16125932       0.09470024       0.90759580      -0.94374043      -1.64307804
I        9.59498967      25.46632888      13.53630481       0.23506582       0.00488341       0.06676107      -1.05971801      -1.28375809      -2.88454322
I        2.89903191       0.58412391      25.73496993      -0.01184018       0.05434116      -0.19926349       0.24835126       2.95298154      -0.38874230
I        6.54462769       3.50652898      25.51714244       0.05388586      -0.10847385      -0.05625411      -2.74825678      -1.07447594       0.77969760
I        6.84357028      22.45493906      13.14128663      -0.21800384       0.24122701       0.03300790      -0.27580354      -1.34331472      -2.23098141
I       12.38376054       0.06552163      22.53309206      -0.00651410       0.04616226       0.00469219      -0.43565321       0.45572394      -0.26953802
I        0.99574277      25.55755493      16.61157977      -0.04677524      -0.07819677      -0.65149857       1.04176955      -0.58424056       1.34218215
I        5.71217266       0.75405562      16.02134072       0.26160699      -0.19145200      -0.07132270      -0.05144605      -3.10378598      -1.77544377
I        6.62047914      24.87926693      22.46592440      -0.06756575       0.06211905      -0.25610279       1.00766831      -0.01060218       1.58611441
N       15.42062725       3.02253178       3.82114610       0.61162449       0.74900958       2.18474097      -0.02075499       0.51507305      -0.67652067
C       14.38980419       3.08402584       2.81958805       1.92379793      -2.17388572      -2.28136202       0.48654539      -0.45740392      -0.94522978
H       14.66386049       3.83401251       2.08525358      -0.02592734       0.16283707      -0.30707787       0.10976028       0.18406353       0.07055475
H       13.48553291       3.27291640       3.24398408      -2.73734747       0.76253985       1.38618845       0.04984669      -0.45028417       0.05006882
H       14.34312371       2.03006987       2.37981640      -0.07576617       1.24813950      -0.00683837       0.12647126      -0.03411802      -0.00874241
C       16.81724315       2.97884958       3.33165836      -0.72171949       0.30418749      -1.97353550       0.47560082      -0.26193103       0.27382309
H       17.05082844       4.01099879       3.04904799       0.37258189      -0.16738164      -0.24397559       0.05955466       0.00178054       0.04648691
H       16.86082039       2.26456025       2.43084002       0.01413475       0.92697202       1.20752335       0.03357453      -0.08321236       0.04608819
H       17.40207056       2.63363968       4.15067620       0.87849139      -0.28174120       0.57260032       0.12088940       0.23207566       0.27632507
H       15.36542365       2.14813806       4.34896729      -0.60499673      -0.58979426       0.58921967      -0.26236341      -0.06219531      -0.05403554
H       15.30090269       3.78069614       4.57908746       0.21145263      -0.67506598      -1.02626901      -0.17816352      -0.26413386       0.04957816
Cs       9.64525429       9.84473313       9.96264383      -0.02663689       0.13306787      -0.24080140      -1.35217331       0.06123617       1.61439931
N        8.43096363       3.87670876       9.78907958       1.11071916       0.45169239      -1.68497094       0.77338823      -0.38182851      -0.35469661
C        9.24518823       2.62736118       9.62586264       0.28298812       0.28871683       0.20884872      -0.68882565       0.18368722      -0.20634732
H        9.97859407       2.70510404       8.77144980      -0.20373430       0.53546571       1.06565782      -0.06216090       0.09190919      -0.34409358
H        8.61826700       1.83472989       9.27475599      -0.80617257      -0.70350194       0.15858684       0.09674156       0.08092293       0.04732332
H        9.65292108       2.42151876      10.63733607       0.30907833      -0.14379252      -0.71219857       0.01689051      -0.08023732      -0.14250163
C        9.34435193       5.07730381       9.81359025      -0.74824208      -0.75673892       0.42450834       1.50528166      -0.35688017      -0.18174890
H        8.71069819       5.96164632       9.85532074       0.01112185       0.27468644       0.22732144      -0.11216469       0.49329834      -0.19531018
H        9.86014992       5.05257351       8.87421659       0.64067110       0.10209414      -0.57844732      -0.15791762       0.08389430      -0.20077803
H       10.01327543       4.93201855      10.67644485      -0.09157663       0.31743386      -0.20239746      -0.18751737       0.06196826      -0.02527748
H        7.84195996       3.89651059      10.62885419      -0.33978993      -0.34901668       0.72228163       0.13880447       0.02571376      -0.08634000
H        7.81703353       3.95211955       8.93825392      -0.07198748      -0.00333443       0.11280435      -0.01098656      -0.15513017       0.10361051
Cs      15.71730250       9.35704784       3.16947785       0.13106366       0.06567827      -0.06867009       1.32586711      -2.02152044      -1.86798884
Pb       5.87618079       7.00016409       6.39908731       0.14741572       0.05973347       0.35138880       0.81184319       1.11003858      -1.82887969
Pb      12.44509224       6.75037515       6.01830029      -0.11808138      -0.00138931       0.13902514       1.61101913      -1.60683020      -4.72430895
Pb       6.21143043       6.67450700       0.19492804      -0.03056781      -0.75939631      -0.03180236       3.48484158       2.63432077       1.76802373
Pb      13.04387914       6.62577330      -0.18964928      -0.16136269       0.00261447      -0.22455991      -1.33548226       1.33221329       2.98523474
I        9.10198256       7.86692527       6.53614031       0.03434734      -0.24054909      -0.02089557      -1.35474619      -2.27670955       2.46307863