640
Lattice="26.09686294556948 0.1302789153402065 0.1749887717290315 0.0687782850200773 26.297450421612037 0.17953952744670226 0.1921816191873481 0.27002915175796594 26.15935101389517" Properties=species:S:1:pos:R:3:forces:R:3:momenta:R:3 energy=-2583.1123046875 stress="0.00024014577502384785 0.00021191629639361056 -0.0001927190023707226 0.00021191629639361056 0.0010356683051213624 0.00030095662805251777 -0.0001927190023707226 0.00030095662805251777 -0.00028652718174271286" pbc="T T T"
Cs       9.81578033       9.90093458       2.58048748       0.13665233      -0.19785056       0.11261784       2.65656560      -0.67196177       3.21619502
N        3.96962536      15.29958071       8.73279645       0.16245965       0.65942613       0.75492066       0.22660607       0.26395259       1.05488283
C        4.12570282      15.19540838      10.20828785      -3.68700207      -0.10517226      -0.21643542       0.05618435       0.05600062      -1.11014212
H        3.71949043      16.18916010      10.44761142       0.53215648      -0.33900589       1.17012775       0.14812907      -0.10553733       0.13999299
H        5.06964333      14.95992897      10.57553240       2.12842420      -0.00634143       0.18002685      -0.06294958       0.21888451       0.05819525
H        3.44875026      14.38192914      10.66307059       0.45992578       1.11657924      -0.86227067      -0.16550850      -0.02784869      -0.14879157
C        2.89967469      16.24172590       8.30115518      -0.61950425       0.06085407      -0.11512073      -0.28644924       0.33106019       0.95695407
H        3.17807745      17.22442647       8.70692315      -0.45055643      -0.05128061       0.20719820      -0.15182474      -0.07764194      -0.23188869
H        1.83554272      15.89212836       8.56068550       1.47148416       0.37772358      -0.11392989      -0.19964331      -0.26510376       0.21508126
H        3.04765700      16.30260604       7.22377687      -0.50619900       0.09718582      -0.37510392       0.03712383       0.05315132       0.10858128
H        3.79392703      14.44801758       8.22731312      -0.03073364      -1.61082874      -0.50727965      -0.02063996      -0.00320938       0.00765162
H        4.82967941      15.70147759       8.35242614       0.59452398      -0.02039051      -0.27490971       0.00083009       0.02175207      -0.25893173
N        3.92275862      10.45401911       9.21845838       2.59267995      -1.40744064       0.63918161       0.04077781       0.73014098      -0.49976028
C        3.18289758       9.33322824       8.55681559      -0.88957230       0.53426869      -0.64962088      -0.22964835       0.14372942       0.33260643
H        2.57917809       9.80500456       7.76107140       0.16153914      -0.22714791       0.01480241      -0.21393892      -0.34100657      -0.10903957
H        2.45332599       8.80678642       9.19818043       0.50326776       0.32502439       0.36387702      -0.11421339       0.01839878      -0.02645165
H        3.90424485       8.63741662       8.14538281       0.16050328      -0.21594718      -0.16385387      -0.32784316       0.16239269      -0.07156795
C        3.13231487      11.24850808      10.16991899      -0.41984663       1.39459870       0.01709479      -0.02903306      -0.37368520       0.51967838
H        3.79551208      12.06283117      10.57629470      -0.67736420      -0.49431630      -0.45435525      -0.09373256      -0.21180180      -0.13678593
H        2.86990632      10.61668137      11.04096757      -0.34727759       0.09804158      -0.47203710       0.06176985      -0.21457031       0.00949574
H        2.24024930      11.67880507       9.57927195       1.02175705      -0.56396230       1.09643304       0.28533873       0.09440792      -0.07764333
H        4.42367922      11.04466685       8.49638557      -0.57549175      -0.29073221       0.24452310      -0.07998003      -0.10458196       0.19479500
H        4.78195116       9.99303946       9.72670350      -1.53079773       0.77532293      -0.67355465       0.06443818       0.08588829       0.18158605
Cs      10.14001682      15.55759697       3.06068455       0.00838630       0.46467997       0.05212796      -0.25389722      -0.71233162       1.70112042
Pb      -0.17543665      13.23525841       6.29213630       0.09679101       0.16533845       0.39244281      -0.59465021       5.10915106       4.08074762
Pb       7.14651582      13.21444534       6.50265865      -0.10783598       0.39871877       0.03849445       1.45704130       1.37054833      -3.41282109
Pb       0.39894423      13.10727994      -0.11536338      -0.02173188      -0.01694199       0.17770896      -2.46918108      -0.83084840      -3.46925693
Pb       6.45096532      13.06124453       0.16607419       0.06321568       0.15261677      -0.00105643       0.17255664       1.00391176      -0.37454911
I        3.22180215      13.15879058       6.06940832      -0.06391701       0.07524661       0.19978946       0.63733589       0.35261702      -0.17911171
I       10.11161353      13.58209314       6.01942823      -0.17200904      -0.24382107       0.09090317       0.37791580      -1.77542415       1.24066490
I        6.54607418      10.32054455       6.50233219       0.01429880      -0.41193689      -0.13411227      -1.24192044      -3.43634598       0.84740354
I        6.95447432      16.71431535       6.65039773      -0.11175030      -0.18774045       0.13269791      -1.51403974      -0.62430614      -0.17235825
I        9.86011588      13.04995293       0.64471568      -0.09132172      -0.17472600      -0.24739938       1.97128926       1.69716817       1.71129023
I        3.29063569      13.81240308      13.54445422       0.14216502      -0.00458779       0.06577008       2.09775744      -1.72168025      -0.65419696
I        7.60804903      16.78750288      12.52600210      -0.25277717      -0.24325048       0.01670865       0.84928842      -1.02142984       1.01038249
I        5.86928356       9.94380161      -0.05101981       0.23761048      -0.01570828      -0.06663008       6.76086396      -1.51774675      -1.25369185
I       12.33445397      13.26243318      10.19561398       0.09197736       0.03280917      -0.17750042      -0.09487562       2.38308062      -2.60335272
I        0.46736808      12.87102905       3.41254964       0.00151810       0.27811272      -0.52519439      -3.95527940       1.47156514       2.10040473
I        6.08418401      14.23983746       3.23205570       0.22703702      -0.18498764      -0.15726580      -1.40373028      -0.00773319       2.58559650
I        7.80936925      12.96484415       9.57770420      -0.08714535       0.09272196       0.01478314      -1.51686482       0.80255316      -2.80113076
Cs      10.51440818      10.33493481      16.19811839      -0.07902288       0.11153618       0.01840379       1.19546020      -1.18417766      -1.98920806
Cs       3.75991460      17.06653748      22.77072700       0.03834938       0.00211142       0.00386098      -2.66431413       0.01870315       2.22706988
N        4.25882653      10.40836412      22.92361239       0.51147965       0.39800263      -0.30433065      -0.08302499       0.47042424      -0.00335020
C        3.38413896       9.18173556      23.01710688       0.55194307       1.44748411       2.37625327      -0.24409774      -0.10437628      -0.13769786
H        2.77942106       9.05705031      22.15539288      -0.53562907      -0.00956523      -1.04048713      -0.10867777      -0.13512806       0.28010966
H        2.78528102       9.42890448      23.93001144      -0.11444294      -0.53612268      -0.63106220       0.06332781      -0.10617836       0.13197897
H        4.01071439       8.33602292      23.25684248       0.27586701      -0.49565944      -0.13975519       0.09291854      -0.13855506       0.12479460
C        3.56389902      11.65246255      22.58837036      -1.35089438      -0.34771497      -2.45445046      -0.02559743      -0.49109692       0.58441581
H        4.23227708      12.48877368      22.54388429       0.91141814       0.37838466      -0.31871378       0.15529676       0.05238323      -0.36938071
H        2.81283837      11.97744730      23.29333669      -0.60269961      -0.53970604       0.59444165      -0.01703553       0.19810124       0.34324903
H        3.10552328      11.42896959      21.55641489       0.29880816       0.70046213       1.28963703      -0.00040221      -0.26214211       0.03655346
H        5.07695132      10.33287449      22.29197245      -0.08271814      -0.59246325      -0.86911452       0.03474438       0.40067564      -0.19111987
H        4.76608002      10.61799373      23.77610276       0.07607724      -0.40433570       1.50227346       0.16168613      -0.16017372      -0.08070021
Cs      10.29510424      17.12477616      16.25889181      -0.05239658      -0.24235691       0.08377684      -0.50051261      -1.36996224       0.59103112
Pb       0.70499000      13.68777212      20.23234624      -0.16467639       0.00198339      -0.48484930      -0.35050486      -1.04816489       0.15820133
Pb       6.92485315      13.85570495      19.58036761       0.28088192      -0.36513113      -0.06201087      -1.44440667       3.15240094      -0.83385438
Pb       0.01571478      13.50928559      12.89284583       0.08299276      -0.03168452      -0.17708909       1.73896971       1.11862780      -1.59776328
Pb       6.43998848      13.46980263      13.01614443       0.22069344       0.13395705       0.09060116      -0.61733884       1.34505163      -4.52942001
I        3.89148263      14.52721895      19.41288415      -0.25914953       0.10098186       0.10770490      -2.84524747       0.05579802      -1.05644076
I       10.17529908      13.38425067      18.79507359       0.00414740      -0.07462837       0.04480216       2.87082423       0.73337818       1.60477261
I        6.64024434       9.92133227      20.16837947       0.05989863       0.17314327      -0.02947028       2.71930908       0.23326342      -1.29465257
I        7.49887641      16.71735170      19.76226018      -0.00265709       0.42941942       0.00785790       2.31785964       0.93182626      -2.17284711
I        9.97881196      13.51739232      13.72264570       0.32065223      -0.07670818      -0.05011790      -0.43986402       3.57732069      -2.57683641
I        3.67849471      14.23303970      25.78335398      -0.12640348      -0.02965587      -0.02942588       0.99356051      -5.13828264       1.38383342
I        6.35474307      16.87799761      25.64554732       0.06755738      -0.06975340       0.07634730       2.33313288       0.62808667      -0.31212447
I        6.97891083      10.35417448      13.27342538      -0.02957830      -0.08099114      -0.08172539       1.15350997      -0.95243069      -1.31763759
I       13.55421520      13.80505872      22.94644064      -0.09343437       0.04369953       0.18916653      -0.48418199      -2.35166365      -0.44572552
I        0.25501893      14.27826986      16.67939335       0.27373201       0.09228897       0.15233934       1.15732189       0.66180376      -0.16572032
I        6.97197924      14.08045076      15.93695686      -0.13220034       0.00901415       0.18285667       0.95588193       3.29752435      -1.77672558
I        7.10794818      13.52592470      22.68295718      -0.05595427       0.00181087       0.13505810      -0.28362470      -0.11292815       0.92027106
N       16.90901259      17.23819713       3.21572201       0.61823649      -2.00818756       0.30876678       0.78375109       0.65307292       0.21378538
C       15.77656373      16.75705618       4.11358732      -0.85032524       0.07271504      -1.74405712      -0.04132775       0.60050042       0.90620144
H       15.11830583      16.01627908       3.51463950       1.03507780       1.02503295       0.83727488       0.05769036       0.29008602       0.09585107
H       15.17075900      17.64040974       4.38699947       0.06039160      -0.22562947      -0.10979234       0.18123866      -0.01388676       0.18956327
H       16.16020057      16.32945661       5.00998808       0.57136728      -0.67140101       0.70603899       0.02699891      -0.29278515      -0.00304823
C       17.62142885      16.13488015       2.36586164      -1.67957981       0.08161956       0.37593377      -0.41219470      -0.08808753      -0.50879845
H       18.38590957      16.51198993       1.67369907       0.10037128       0.41278881       0.51135331      -0.17378620      -0.09272808      -0.17131479
H       16.81614915      15.70977459       1.67622170       0.81020112       0.08377116       1.16435627       0.12773126       0.02136923      -0.03369096
H       18.03105036      15.44941867       3.13044940      -0.21092344      -0.04945587      -0.64161971      -0.22368199      -0.13567413      -0.03495477
H       17.60529942      17.81603475       3.69115770       0.42978248      -0.04016239       0.49165335       0.07389003      -0.12319205      -0.11355675
H       16.48977327      17.85121420       2.55981528      -0.90117119       1.23722094      -1.65275287      -0.07252632      -0.19692270       0.14748346
N        9.41861563      23.11149717      10.21540025      -1.87415212       1.25711773       0.87929240      -0.16403825      -0.00976913       0.41781623
C       10.75272987      22.69044207      10.66119476       0.86243628      -2.13560337      -0.80451115      -0.08659424       0.79943424       0.18972201
H       11.51491419      23.13489192      10.01717381       0.11963035       0.38146680       0.24486175      -0.04122884      -0.03042034      -0.14034617
H       10.85417364      21.57408983      10.45807512      -0.20498343       0.99807691       0.13180205      -0.23650742       0.31329518       0.21676268
H       10.91312710      22.76640124      11.73430407      -0.00779020       0.61563273       0.17723680       0.03610584       0.00350207      -0.01702625
C        9.31273761      24.32523776       9.29171628       2.99693558      -1.60536951      -0.84751704       0.41412727       0.68034301       0.18652884
H        8.38201267      24.38624436       8.78596968      -1.24375666       0.22551614      -0.00710957       0.00212829      -0.08097675      -0.36661233
H       10.09487023      24.14243505       8.50205147      -0.52538538       0.14202343       0.49117224       0.37669673       0.12331560       0.24416764
H        9.67956405      25.16079121       9.86241655      -0.39962191       0.62327960       0.27343612       0.13516977       0.12581863      -0.32819436
H        8.89133475      23.47762045      11.06665344       0.19904673      -1.05408766      -0.59942279       0.19491812      -0.01192718      -0.36025186
H        8.92008796      22.28968208       9.82346221      -0.04925826       0.40263841       0.17716506       0.02191454       0.07832864       0.34146715
Cs      10.32609080      16.67528682      10.05874920       0.11131273      -0.18076369       0.04405143      -1.67355237       1.43226906       1.10069451
N       16.04622731      21.91079675       2.75751610      -1.28412272       0.50260802      -0.21932171       0.07592014      -0.64572940       0.63072725
C       17.29650907      21.79486745       3.54944361       0.11189580       0.27023739      -0.08088100       1.17183683      -0.06672470       0.12548264
H       17.96128378      21.25519437       2.91785174       0.94346858      -0.52455280      -0.55045578      -0.07958018      -0.04060057       0.18277883
H       17.10547622      21.17469930       4.42977729      -0.16621547       0.21486701       0.19142925      -0.19305418      -0.23673905      -0.12235654
H       17.76821358      22.75438482       3.78984646      -0.49748431       0.11878936       0.04334153       0.00214263       0.36639931       0.19049318
C       14.91935447      22.70359156       3.42446768      -0.22990739      -1.45204664       1.36232489       0.15415298      -0.33285835      -0.93735858
H       14.42155271      23.36102324       2.74499375      -0.49103633       0.05595869      -0.93006910       0.11148673      -0.03466342       0.09726266
H       15.33459552      23.35487242       4.16459971       0.87098867       0.43284043       0.62369031      -0.01396445       0.01875650       0.00368124
H       14.21326561      22.03782775       4.01505033       0.65446472       0.37662215      -0.99453176      -0.08186697      -0.03211717       0.03240093
H       15.77534423      20.91089273       2.59304203      -0.27256274       0.64779874      -0.29044884      -0.30345933       0.11357068       0.02803307
H       16.14373090      22.35818978       1.80632185       0.39701099      -0.53034713       0.65978047      -0.01626058      -0.05880098       0.20180694
Pb       6.37972001      19.65890245       6.71910605      -0.01839419       0.13087798      -0.03062881       0.11519675      -2.41882095      -0.07219612
Pb      12.82705542      19.85857658       6.75632806       0.04116361      -0.02186829       0.02281665      -1.04837695      -2.61223154      -0.39619103
Pb       6.57887917      19.39600912       0.43825862      -0.01676395       0.18399871      -0.26174874      -0.19741159       2.05818114      -2.70140955
Pb      12.72188040      19.42443038       0.17220748       0.22218389       0.06322610       0.12605625       1.80616313       0.94592910       1.35618823
I        9.97212065      19.43421506       7.76109484      -0.06316049       0.11140086      -0.04145738       3.10246455      -0.33644466       1.85584971
I       16.43678703      20.64974754       7.04280593      -0.33785326      -0.09397892       0.10779401       3.45318724      -0.54821133      -1.44917594
I       12.85106633      16.08651498       6.70261727      -0.13173520       0.26255481      -0.02257280      -0.05694243       2.26079288       0.47307902
I       12.91653994      23.01472108       7.11333752       0.06714516       0.27406183      -0.10095990       0.05187279       3.56078391      -0.93723694
I       16.50400639      18.92885524       0.21423559       0.15085529       0.31374011      -0.09702528      -1.03422081       1.25273331       1.80724743
I       10.27605752      19.21292135      13.16267409      -0.01660168       0.23975550      -0.03814023      -0.96330187       1.23874873       0.79662517
I       13.83272751      23.29538341      13.95468779       0.11671048      -0.58043851      -0.01672665       0.36911483      -2.54834374      -0.08008515
I       13.53978346      16.28971726       0.68689428      -0.21677501       0.07955176      -0.05318812      -0.77133691      -1.10115787       1.83720335
I       19.40790211      19.52639867       9.98947453      -0.04683162       0.08387516       0.19510595       2.14409293      -0.20136909       2.28075567
I        7.09470364      19.37323348       3.42893432      -0.08512907       0.01495932       0.02196895       0.42376484      -0.05127415       0.14527910
I       11.91851265      19.81134717       3.60656603       0.25893802      -0.17431620       0.07688886       0.88309439      -1.36482997       0.94824453
I       13.91074245      20.40154311      10.21273633       0.03736749      -0.15137913       0.12809332       1.60443150       2.14651316       0.24710005
Cs      16.34399771      16.89877519      17.39999300      -0.02235469      -0.21257985      -0.28899101      -0.59154806      -1.70904457       1.49878170
Cs       9.83809244      23.65887064      22.87765689      -0.05971590       0.02503889       0.06146622       2.27939665      -0.53361040      -0.51231755
N       10.98514546      17.10151961      23.12204485       1.53737147      -0.36530679       2.15527469       0.46033125      -0.32847451       0.51885446
C       10.15327329      16.07556729      23.87004208       1.11796663      -0.15700900       0.43730522       0.36000685      -0.06301287       0.92149509
H       10.01309439      16.50781789      24.89517362       0.26238777      -0.55988227      -0.45921786       0.10266818      -0.08843741      -0.06148933
H       10.76961508      15.12676414      23.84732770      -0.85575871       0.83223450       0.20226866       0.18929022       0.36096361      -0.00634589
H        9.15635128      15.97599787      23.46382206      -0.17646273      -0.16263585      -0.69773041       0.12179513       0.11055517      -0.11959137
C       10.27012619      18.15432035      22.43302742      -2.17016596      -0.11498665       3.15095803      -0.65024178       0.18043618       0.85411491
H        9.90424921      17.77608176      21.50498689      -0.73883231      -0.12258963      -0.57161856       0.20989454      -0.06654171       0.36505040
H       10.94119022      18.92993448      22.35706516       1.53661173       1.95689757      -0.76461672      -0.25832358       0.06888411       0.05769115
H        9.56782133      18.46619594      23.26392640      -0.16970711      -0.01919396      -1.56493141      -0.06222110       0.08775607       0.08095506
H       11.60532277      16.79267535      22.39192551       0.74455906      -1.41999121      -0.45149758       0.14223069      -0.08568566      -0.19512677
H       11.66735550      17.46348427      23.89454190      -1.07084465      -0.06932795      -1.45889135       0.04712658       0.00559845      -0.02127415
N       16.53994840      22.62060891      17.80221765       0.08147450       0.60439273      -2.22254537       0.75078069       0.11314658      -0.03057206
C       16.79274633      21.61140198      16.71914454       1.07513947      -0.56625856      -0.80251479       0.36855218       0.78629280       0.05339671
H       17.48717893      22.06088801      15.93720810      -0.93074216      -0.35992478       0.82544669       0.07843199      -0.05221013       0.04008529
H       15.85086931      21.20073081      16.26272829       0.34535799       0.94295051       0.27386725      -0.07945396      -0.00025365       0.27135387
H       17.28484437      20.69446386      17.10986504       0.00385990       0.57094929       0.26690236      -0.21325812      -0.05531084      -0.11129941
C       16.25494135      24.02362462      17.22784902       0.56686236       0.44058198       0.65599913       0.22623756       0.20530007      -0.48251137
H       16.79977079      24.17210279      16.28816348       0.11288014      -0.39371270      -0.03830085       0.11577489      -0.06806111       0.00458353
H       16.62994353      24.86994882      17.90633663      -0.80808982      -1.24257108      -0.48549348       0.15110350       0.20741673      -0.21414212
H       15.17607869      24.03520110      17.00144411       0.23728277       0.31483480       0.17176036       0.44281889      -0.11979103       0.09111622
H       17.26961469      22.63135910      18.51074999       0.56115769       0.05447973       0.46074231      -0.07393397      -0.00568205       0.07037279
H       15.67939984      22.29730147      18.19753546      -1.06764824      -0.11526552       1.26280789      -0.09556971       0.19928379       0.15304596
Pb       7.39660052      20.27722834      19.95841394      -0.38755436       0.05727862       0.18397475      -3.83247189      -0.47411149       4.32940212
Pb      13.75877169      19.93226315      19.97222570      -0.19474292       0.15724915       0.00994579       1.56848383       3.37564464      -4.24230203
Pb       6.80002407      19.71091691      13.67049107       0.06354030      -0.45140376      -0.05261149       4.82457585      -2.57063152       3.40778323
Pb      13.85575121      19.77076048      13.43729329      -0.25431953       0.11393518      -0.15230091       1.09022116       1.67347879       1.29832873
I       10.31621739      20.96255252      20.20767973       0.10394462       0.06856942      -0.15556554       0.13341541      -1.43013394       3.82239145
I       16.95891137      19.16160587      20.08321257      -0.07734552       0.15037945       0.12009012      -1.30510859      -1.52975567      -0.53873354
I       12.79995012      16.97657052      19.55102836       0.09152152      -0.11646693       0.07722051      -1.49309758      -2.39543084      -4.60154640
I       13.72242374      23.33030777      20.00429205       0.06394200      -0.00961767       0.07897098      -2.80370977      -1.95066534      -0.56522735
I       16.80223104      19.60561384      13.99097731       0.09116071      -0.40219183      -0.29407993      -1.21403497       3.18998961      -1.44819165
I        9.98237095      18.98812735      26.44453010      -0.12825051       0.05492275      -0.01161526       0.44775245       1.36545185       0.81217736
I       13.51093909      23.53226241      26.29267779      -0.08506181      -0.36665213      -0.10372560       2.11685407      -3.12127617      -0.70060582
I       13.42998989      16.68455979      13.23983289       0.07862541      -0.04822793      -0.03810601       1.55418150       0.15681946      -1.68520308
I       20.09060723      19.60020410      23.09237482      -0.05509730       0.00117296      -0.03451408       0.01404284       1.93349562      -2.54370966
I        6.96654028      19.64493318      16.78789351      -0.02491881      -0.10359928      -0.02863650       0.90193512       0.59295297      -1.13322039
I       12.88447337      19.94040428      16.61793804       0.15963310      -0.03070586       0.02786689       2.56415031       0.83729095       1.95326603
I       13.37588770      20.13957488      23.17306593       0.05423389      -0.09682479       0.15016773       0.14668771      -0.08589552      -0.14859170
N       10.14078656      23.71560833       5.05216131       0.91221820      -0.75762412       1.51058103       0.96402715      -0.13722014       0.47971394
C       10.30384032      23.51761113       3.62529941       1.23293368      -0.52972206      -1.07105690       0.34166911      -0.10004008       0.21211665
H       10.98278286      24.30243267       3.28137633      -0.37219237       0.29361946      -0.53967577       0.18845274      -0.12310251      -0.16861668
H        9.30799697      23.48853620       3.20693260      -0.21760687       0.24042003      -0.68714162      -0.27049845       0.13403309       0.04800315
H       10.86083116      22.53747967       3.37357552      -0.85061230       0.99255465       0.61189224       0.17041065      -0.05277010       0.01901647
C        9.28798942      22.60801594       5.56583884      -0.75464011      -0.24752133      -1.57447724       0.04778207       0.16004670      -0.10672485
H        9.10053868      22.64813687       6.65002968       0.19484954      -0.08930043      -0.22309302       0.15173042      -0.03448226      -0.04184977
H        9.72752252      21.66457040       5.15296288      -0.09923993       0.33193478       0.80378054       0.12367589       0.23452079      -0.01588234
H        8.34940729      22.75120324       4.95017323       0.30775789      -0.28639855       1.00042690       0.20205232       0.13454860      -0.02603855
H        9.68437404      24.62228639       5.35806009       0.58150441      -0.03179389      -0.40480814       0.01388800       0.13724512       0.10808516
H       11.14458910      23.66938095       5.43963842      -0.93439774       0.13163471       0.45036971      -0.06006800       0.18304327      -0.01825258
Cs       4.37292192       3.69941025       9.72818143      -0.10755216       0.08469305      -0.13691502      -2.09621115       0.75641459      -0.35920899
Cs       3.42650287      22.99061156       9.84175155      -0.02933623       0.09156207      -0.01813383       0.61484460       2.62211080      -0.29246579
Cs      10.28083495       3.81192249       3.50499807      -0.08486014       0.01360014      -0.01050966      -1.39884268       1.58988042       0.97424101
Pb      -0.15115534      -0.02280826       7.23289566       0.24381149       0.14405555      -0.35539917      -1.23510963      -0.41703383       5.70028034
Pb       6.80771550       0.44345768       6.32198275      -0.84759280      -0.31042420       0.20624963      -0.52397929      -3.05240837      -0.72028324
Pb       0.10986421      -0.06154963       0.36560088      -0.05520745       0.01969670      -0.42769009      -3.97821060      -2.06917534      -0.96972426
Pb       6.25776124       0.17166910       0.01295517      -0.09700167       0.05625812       0.30028843      -6.40913302      -3.11938384       3.57022843
I        3.43097449       0.77099299       7.37380006      -0.21738832       0.11493360      -0.09151895      -1.61735607       0.68459686      -0.88115055
I        9.73519299      26.94990356       6.45353675       0.71212314      -0.09872368      -0.06999365      -0.59744180      -0.34558046      -0.02102302
I        5.60160196      23.56039030       6.64677831       0.01534301      -0.19072397      -0.04619275       1.54070756      -1.14558484      -0.47650811
I        6.96089158       3.42436987       6.24942457      -0.04684517       0.51559330       0.20672116      -1.21412274       0.47068510      -0.53453697
I        9.51056195      26.17409744      -0.36521171       0.13996021      -0.10322814       0.03089482      -0.16371180       0.76639641      -0.50565243
I        3.29553043       0.89911702      13.63180178      -0.14990730      -0.35594934      -0.01949975       1.17553313      -0.13601865       1.79036061
I        5.95725354       3.33136802      13.00533105       0.28517286       0.26695658      -0.01729349       0.02682551       0.90741437       0.70924371
I        5.58427349      23.53126130       0.12825219      -0.01142143      -0.35800394       0.13884976       0.66214043       1.11801875      -0.71688059
I       14.01406592       0.01346699      10.17832111       0.03081600      -0.20892204      -0.31582838       0.28889249      -2.51774835       1.23226823
I        1.27158790      26.09986463       3.23941804       0.14886653      -0.00271513       0.41953242      -0.93601842      -1.34561557      -0.90268540
I        6.17849505       0.80814889       3.39610197      -0.04528470      -0.17404125      -0.16669240       2.92360675       1.71352114      -1.73993196