640
Lattice="26.203925142547757 0.08538902529418714 0.07033542448526524 0.12410511979815024 25.96312535439929 -0.035762126454004776 0.1563076049767336 -0.006774515752692655 26.242337943126042" Properties=species:S:1:pos:R:3:forces:R:3:momenta:R:3 energy=-2585.289794921875 stress="0.0010046792449429631 0.00033523995080031455 0.00045049193431623275 0.00033523995080031455 0.000974769878666848 -0.000488658610265702 0.00045049193431623275 -0.000488658610265702 0.001492818584665656" pbc="T T T"
N       11.06002149       9.80052897       2.79799940      -1.20889542       0.89674390       0.64388752       0.20817835       0.15795950       0.19540236
C       10.62912008      10.85916441       1.83507085      -1.27656243       0.68959544      -1.15861477      -0.21484898       0.73527009      -0.76105877
H       11.52790228      11.49315959       1.57640091      -0.67771433      -0.82347111      -0.34182836      -0.19308446       0.19839192       0.01661120
H        9.97001837      11.54375778       2.41657719       0.11289714      -0.39733624      -0.39921580       0.01881153      -0.06788263      -0.20176447
H        9.97150850      10.41438335       0.87844796       1.86750338       0.91660612       2.43414717      -0.31975878      -0.06690170       0.16494109
C        9.95553278       9.41259423       3.79970888       1.43632437      -3.95190603      -1.55459386      -0.35087244       1.05389867      -0.00242873
H        9.40381447      10.22524764       4.12198375      -0.37688179       2.06066676       1.20001153       0.01348699       0.28665957       0.12784932
H       10.40458244       8.64821596       4.54769286      -0.79914425       1.61294416      -0.85100136       0.04230364      -0.10331614       0.13067780
H        9.20632668       8.86682597       3.19213044       0.39880368      -0.17522656       0.07836528       0.03582347      -0.01039101       0.16999535
H       11.89431796      10.08092373       3.32674751       0.11137908       0.31732618       0.09343177       0.04643146      -0.05264731       0.07250275
H       11.35772442       9.02851850       2.22460303       0.24598800      -1.28078255      -0.23626964       0.00692205       0.10376900      -0.03799193
N        3.52143221      15.89370386       8.48340840       0.64214325       1.19263476       0.38177594       0.91109416       0.63594569      -0.00186243
C        2.09954312      15.69696775       8.97450462       0.77951934       1.54029432      -1.14742256       0.16075844       0.19619590       0.20694641
H        2.11945836      14.83280198       9.60747389      -0.15178716      -0.58059152       0.54920469       0.23467764       0.09439055       0.18986120
H        1.50805540      15.51040401       8.04680773      -0.13085019       0.30544286       0.82973940      -0.30070408      -0.08851536      -0.09898920
H        1.87202911      16.63684800       9.54316742      -0.28455409      -0.81889833      -0.46429522       0.16914860       0.11270260       0.15405740
C        4.48788188      15.93104384       9.63966472      -0.92105218      -2.01899472       0.55621730      -0.53019230       1.11914054      -0.29828764
H        4.33969583      14.98786643      10.24439317       0.08443438       0.46885296      -0.68271510      -0.18038821      -0.29516304       0.24240768
H        4.14490852      16.68706876      10.32379419       0.16005512       0.92777735       0.13843374      -0.13238674      -0.22501086       0.17796385
H        5.52673268      15.95395680       9.33747236       0.27875829       0.42232482      -0.30396204       0.04020516      -0.03605772       0.08085056
H        3.69217439      16.76379792       7.89436704      -0.69964546      -0.33575807       0.55265635      -0.05562004       0.03811639       0.03807951
H        3.72021464      15.14764002       7.81159667       0.31540021      -0.93698660      -0.22851128      -0.14798570      -0.03176772      -0.28060730
Cs       3.67478576       9.47475142       9.69514048       0.09775981       0.07035674       0.00523954      -0.67421790       0.15340355       1.11824978
Cs       9.73986932      16.77415279       3.52196403      -0.03718535      -0.09973208      -0.05533623      -0.83993529       1.23575078      -0.44964028
Pb       0.00911824      12.39319317       6.33036978      -0.25469073       0.14297795      -0.04160781      -0.55393352       0.26289574      -1.01641440
Pb       6.27154903      12.62596813       6.21830557      -0.00998130       0.01217728      -0.00038255      -1.66733948       4.07543928       2.78432900
Pb      -0.04058865      12.47519771       0.00042242      -0.01339786       0.29992334      -0.17833291      -3.58322368      -1.86459124       0.15989164
Pb       6.48082087      12.86165647      -0.11914632      -0.01826336       0.19862793       0.09407267      -0.42720300      -1.05196861      -0.76569911
I        3.00046155      13.12865396       6.44200593       0.43668867      -0.09134491       0.04717968      -1.95633666      -0.47929169       0.33200278
I       10.12824984      12.23294837       5.92556391      -0.12055238       0.24342305       0.36517610      -1.45136277       1.03108191       0.40556026
I        5.44066082       9.65013462       6.14094928       0.06840716      -0.09500480       0.02828697       1.45412981      -1.91120485      -1.36512711
I        6.66199065      16.04990985       6.36326450       0.04541256      -0.06877006      -0.02929907      -0.20627931       0.09244267       1.00412448
I        9.95651688      13.51668876      -0.80303093      -0.06177993      -0.11074056       0.22668567      -1.97232166       0.81039866       1.75725236
I        2.80010176      12.95627361      12.24360014       0.06841409      -0.03790982       0.10793784      -2.25766732      -0.08902149       0.63929510
I        7.36166226      16.09832592      12.95753482      -0.09808585      -0.08541838       0.06667261      -1.82701620       2.02850831       1.48261175
I        6.53235310       9.65398429       0.61727124      -0.13206750       0.17712292      -0.04367395       1.48992914      -5.66655575      -2.59104009
I       13.27961348      13.69310233       9.74550125       0.11465052      -0.08705196      -0.35308992       0.48451276      -1.08043004       0.73534306
I        0.51908977      11.61816844       3.20841771      -0.15242589       0.32844243       0.23344551      -1.51534463      -2.18831957       1.61061502
I        6.47442331      12.96068177       3.14330047       0.03498262      -0.01813287       0.07063144       0.64993699       4.23818853      -1.42534991
I        6.75330184      12.21806086       9.77256217      -0.05476877      -0.11408134      -0.29797680       0.33186558      -3.35034058       1.40879651
Cs       9.85498834       9.79908951      15.78310673       0.00203456       0.01625122       0.08077916       0.46126270      -1.21283374       1.00450208
Cs       3.03041567      15.93048363      23.21246408       0.04435593      -0.05642522      -0.08737480       2.47375343      -0.61816985      -0.77087337
N        4.82345735       9.72250959      23.47379788       0.35663489      -1.67081124      -0.22115192       0.17373688       1.02334135       0.07581087
C        4.38962548       9.57852292      22.01660831       0.72483923       0.77339912       1.12093680      -0.60715827      -0.10404894      -0.59634804
H        3.56684066       8.89127227      22.02166501      -0.51811952      -0.45639376      -0.24433038       0.46178523       0.13234767       0.02695500
H        5.23078489       9.21242539      21.43827219       0.13944006      -0.06972617      -0.35467097      -0.19503972      -0.00313954       0.29208800
H        4.07007240      10.58383552      21.71210250      -0.04949193      -0.20904953      -0.23192643      -0.04488340      -0.20304771      -0.28582852
C        3.65967437       9.52957064      24.35197787      -0.62688686       2.72758029       0.52737063      -0.16200630      -1.00853170      -0.85126487
H        2.91504357      10.24903266      23.95482002       0.11478803       0.04175974       0.54826479      -0.03653022       0.13432007      -0.04502114
H        3.89332517       9.71929881      25.42547787       0.01002093      -0.11840886      -0.62167910       0.09490287      -0.06006613       0.01397395
H        3.19245954       8.60614451      24.19285641      -0.29162738      -1.90112483      -0.18563356      -0.40117453       0.36078157       0.22765062
H        5.26999758      10.63072108      23.59385101       0.16197435       0.49574057       0.28420552      -0.01287948      -0.09995091      -0.08894310
H        5.51506207       8.99383482      23.79081395      -0.15345737       0.43125525      -0.65948427      -0.23762481      -0.02442735       0.19162613
Cs       9.86012303      16.51002766      16.33872572       0.04063247      -0.07318909       0.01471287       1.63348954       4.15336022       0.78104579
Pb       0.08423534      13.15180640      19.71495348       0.00711689       0.08518399       0.05128764      -4.56452504       3.98574095       0.62151308
Pb       6.82579169      12.73787210      19.81966336       0.17068704       0.19401238      -0.19656341       1.46084276      -0.39549412       2.91374931
Pb      -0.55144271      13.19354281      13.23955218       0.40168664       0.16910172      -0.08564324      -1.17091480      -1.35239246      -1.66980639
Pb       6.57297051      12.83695123      12.66636574      -0.19089943      -0.04397749       0.23624498       1.26058031       0.29767633      -1.06758710
I        3.24282759      13.35241665      19.98749394      -0.01107352       0.18865064       0.20386607       1.56727826      -0.75245723       1.26011216
I       10.08193556      12.53987589      19.61943702       0.15153379      -0.01288389       0.01609426       1.37828485      -1.90898046       0.46617617
I        6.44825882       9.50530712      18.66863878       0.18709595       0.28297371       0.05300201      -0.67837993       3.59273147      -0.87523914
I        7.81825091      15.99434392      19.65011978      -0.17282972       0.06737901       0.00837541      -2.11520428      -0.12162248       0.03522921
I        9.61599506      12.33947245      12.76595990       0.02183460      -0.09899559      -0.00265256       2.41681282      -1.16721066      -1.89550837
I        3.38028594      13.21616376      26.04036553       0.04742151      -0.00243663       0.00882351       0.95143435       1.60015687       0.67210776
I        7.02184497      16.20111226      26.40403700       0.14650161      -0.32583125      -0.11426454       0.28859483      -1.44463493      -0.26088737
I        6.03220513       9.52300196      13.26692174       0.10439760       0.15701204      -0.05506259       1.99034115      -1.10922345       2.83438573
I       13.83237845      13.45022618      23.18256457      -0.07183802      -0.01040741      -0.31231992      -1.45101283       1.44232620      -0.62663859
I       -0.46887278      13.51126727      16.37274764      -0.03672537       0.00421838      -0.11387595      -2.87974220      -1.25916533      -0.21451833
I        6.72452832      13.38166303      16.76999199       0.09767659       0.04038856      -0.16464050       0.18463665      -1.17930445       3.13959780
I        6.64088427      13.58781600      22.98724646      -0.10442737      -0.03045663      -0.03421320       3.42921084       0.45560546      -1.77375002
Cs      17.22618815      16.89024705       3.35710626       0.08226789      -0.26781743      -0.02593045      -3.31627283      -1.28535055      -0.34209611
N       10.58610937      22.67894942       9.20069282       0.26767431       0.01563418       0.99535376       1.28888538      -0.76997743      -1.14836319
C        9.49284763      23.30047363       9.99198784      -0.89663605       1.15525419       0.44900708      -0.59460444      -0.60901057       0.19391704
H        8.67273027      23.74709219       9.34612038       0.84118467      -0.68860521       0.55634546       0.04057134      -0.26708869      -0.14088932
H        9.96378789      24.12067915      10.58481684      -0.35891099      -0.33110474      -0.27785483       0.06402306      -0.12981592      -0.00509944
H        9.08684905      22.55256320      10.73864928       0.27476072       0.53832607      -0.87802915       0.08854763       0.00329173      -0.06176934
C       11.63930264      22.26322234      10.19660162      -0.30521620      -0.24004011      -0.13770580       0.39569138       0.46317541       0.48291634
H       11.11488277      21.69349609      10.96216918      -0.10878342      -0.19325856       0.10680160       0.32778488      -0.12584416      -0.14724874
H       12.09760219      23.12604342      10.69655526      -0.13376963       0.24735086      -0.35065449      -0.12494715      -0.11328640       0.01730989
H       12.41098975      21.63463296       9.76516862       0.18683623      -0.05942197      -0.41102496       0.13272721       0.03122140      -0.02075648
H       10.97515331      23.26058190       8.44088185       0.02979426       0.45123173       0.01701570      -0.14239157      -0.14350793       0.04931469
H       10.16449062      21.89110461       8.71923489       0.03202911      -0.88089137      -0.36892023      -0.03801014      -0.31782607       0.16574241
N       10.60475565      16.11052026      10.04866823       1.09263082      -1.02638500       0.45412973       0.26851523      -0.20923219      -0.55856193
C        9.63753754      14.99069088       9.60734835       2.00613210       0.84038901       0.54705853      -0.30296298      -0.59271595       0.02570154
H       10.21520454      14.08508080       9.74812133      -0.10259318      -0.60672304      -0.35045960      -0.01221885      -0.26134704      -0.19756084
H        9.27395239      15.20880893       8.61863907       0.16207909      -0.07283093      -0.70290771       0.14302187      -0.04435950       0.32540869
H        8.81430822      15.03053539      10.27006262      -1.02110947      -0.00744696       0.95119534      -0.03145486      -0.01565923       0.20958707
C       10.04094878      17.39712457       9.72824062      -0.43892636       1.33851314       0.55346197      -0.04107747      -0.37156482      -0.21133068
H        9.64674184      17.30531619       8.72203802      -0.28876815       0.38660835      -0.23434047       0.00464334       0.42744813      -0.26262849
H       10.76229675      18.23194344       9.80878314       0.03245114      -0.49912432      -0.15290291       0.14695874       0.06668851      -0.17656342
H        9.28224845      17.60821462      10.48659485      -0.37988172       0.02751722      -0.25138380      -0.20279531       0.26413364      -0.05417234
H       11.56768523      16.07783998       9.58330520      -1.00616504      -0.59502774       0.40770030      -0.05616601       0.01409173      -0.35212560
H       10.82417033      16.02989721      11.11826685      -0.14930139       0.11168908      -1.27292773      -0.16825967      -0.14622256      -0.13719196
N       17.10572241      22.67795888       3.24501443      -0.50605126       2.06332450       0.82368930       0.47323211      -0.65544944      -0.64201057
C       15.96452049      21.72972041       3.37190029       0.32142235       0.28665548       1.66774625      -0.05596364       0.35975296       0.52098930
H       15.49418097      21.99070223       4.38682611       0.20048759      -0.38191364      -1.37211563      -0.32697125      -0.02086685      -0.26900134
H       16.47679025      20.75334742       3.48973919      -0.75784753      -0.03033830      -0.35838139      -0.10833749       0.18070671       0.02659686
H       15.26796681      21.85292830       2.52403267       0.25973373      -0.21791936       0.25956249       0.13134770      -0.12530310      -0.20468515
C       16.68694490      24.17840402       3.26276527      -0.26471721      -0.50281520       0.36841038       0.78205948       0.52242523      -0.19474038
H       16.23404608      24.39652345       4.27460533       0.37916413      -0.28803054      -0.82058944       0.16600400      -0.02117872      -0.21285997
H       15.94753581      24.43339820       2.47584062       0.32569105      -0.43620546       0.16789130       0.12192385      -0.14888726       0.18617229
H       17.60193271      24.77536650       3.13585243      -0.12274248      -0.07660495       0.00291140      -0.10348499       0.27932705      -0.10970438
H       17.71358855      22.46103145       2.44237413       0.15365477       0.09455447      -0.41401840       0.11976237       0.02625185       0.27294430
H       17.69915345      22.63692055       4.11592715      -0.06598225      -0.45722816      -0.38782039      -0.20906764       0.03927154       0.20891118
Pb       6.58113278      19.16677627       6.69938657       0.14496746       0.16031912      -0.42287657      -3.25847938      -2.20690422       0.73004139
Pb      13.07790366      19.48589664       6.95189472       0.13513751      -0.06106558      -0.42376489      -3.23557213       0.32086830      -0.39151247
Pb       6.49017560      19.23763138      -0.17085929      -0.00875590       0.21335553       0.10451987      -0.20454539       1.47664553      -2.30676825
Pb      13.19121909      19.50997890       0.41961922       0.18276734       0.12569642      -0.17893128      -1.53859773       0.10562019      -0.98016633
I        9.85858812      19.56174209       6.76735552      -0.31627029       0.18196060      -0.06890557       0.33054879       1.58975889       0.35255554
I       16.06473682      18.63006188       6.21030052       0.04418257       0.05734390       0.16212025       0.31767475      -3.08423909       0.66212106
I       12.35630889      16.32390837       6.38046409       0.05431378      -0.23200276      -0.07080787      -1.10535633       1.75582112      -0.51008720
I       13.63220341      22.66321083       6.87837871       0.03354462       0.11676223      -0.03075561       1.90795946       0.84390290      -1.20759406
I       16.65999204      19.01850537       0.52736594      -0.06989834       0.13298681      -0.16384839      -0.30191541      -1.24460621      -3.62451352
I        9.69980138      19.77571845      12.81619588       0.06695184       0.03439560       0.10505174       2.45886447       0.51429221      -2.73891717
I       13.70220645      22.93470871      13.15005069       0.09663716      -0.10819482       0.01242465      -1.91119718       3.41507607       1.35667148
I       12.81881765      16.49195467       0.43905303       0.09305731      -0.54691529      -0.07265189       0.75887087      -1.58160727       0.33565114
I       19.21379435      18.46391476       9.51956591       0.05427813       0.20441138       0.21094278      -1.69489738       0.48225200       1.77920757
I        7.23166164      19.61737887       3.16149913      -0.03908490      -0.07525782       0.11196827      -2.60340320      -4.40843344       1.84795403
I       12.41446060      19.44345071       3.33048318       0.15962267       0.04123853       0.26345788      -1.46340023       2.09178440       2.09039950
I       13.60410445      18.77065939       9.82946078      -0.04838942      -0.09090606       0.12092994       0.34063811       2.84586137       0.58715444
N       16.37873710      16.15382304      16.14722817       0.08182884       1.42898390      -1.64349046      -0.42028440       0.39446711       0.42431998
C       17.31268653      16.32478874      17.26369780      -0.10185463      -0.95897592       0.48206840      -0.58323015       0.19093699      -0.49907198
H       16.92613114      17.11874547      17.91149590       0.07250152      -0.01279171       0.00322267       0.40098319      -0.01616138      -0.14069879
H       18.28395837      16.59142060      16.85482592       0.35902185      -0.08240001       0.12126080       0.12890438      -0.12273616       0.07167018
H       17.29848716      15.32522143      17.78688097       0.35940929       0.96091051      -0.04410050      -0.11858138       0.13031791      -0.05502172
C       14.97203611      16.29027315      16.57086446      -0.30122471      -1.46651676       1.41224214      -0.21833762      -0.22758829       0.74376042
H       14.96795742      17.08079524      17.32711405      -0.39552696       0.08618040      -0.10531394       0.14157479      -0.01124506      -0.02522493
H       14.65746743      15.30710171      17.05253407       0.29649390       1.00327035      -0.29913858       0.25375584      -0.00839258       0.16273106
H       14.29207130      16.45566726      15.75178564      -0.17832974       0.32176048      -0.57279250      -0.10641756      -0.08661364       0.17102648
H       16.54963937      15.23181297      15.73829605      -0.02000521      -0.34354469      -0.55659454      -0.09805160       0.26904140      -0.11074093
H       16.57854826      16.87194106      15.36487113      -0.26184587      -0.90424950       0.93026354      -0.29273671       0.16375732      -0.11901027
N       10.82975818      22.06234975      24.01088016      -0.25136416      -0.34307261      -0.25569397       0.13353924      -0.64784420      -1.81713482
C       11.35426852      22.07216491      22.58059193      -0.07016048       1.24708179       0.26336910      -0.32626947       1.20368865      -0.60763038
H       11.17497161      23.15640294      22.25686324      -0.36576628      -1.50725695      -0.23639277      -0.03924808       0.06848319      -0.11125436
H       10.80309791      21.25005648      22.02451942       0.69403159       1.12108718       0.26692545      -0.12987080       0.01050019       0.08249370
H       12.46878611      22.03719839      22.51158941      -0.59827333      -0.66043202       0.37287766      -0.10552340      -0.11502991       0.01417679
C        9.27511204      22.28087719      23.94114267       1.85614164      -0.19591445      -0.64833210       0.55941426       0.78119776      -0.37257832
H        9.16188233      23.12567133      23.20219472      -0.27364590      -0.96627501       0.59159672      -0.05604354       0.30744814      -0.13126038
H        8.89959732      22.57857818      24.91757008      -0.06487001      -0.01740977       0.25217835      -0.21334773       0.16109257       0.29330227
H        8.87605513      21.29678426      23.61711999      -0.12087585       0.71108516      -0.06329930      -0.06125781      -0.10501939      -0.14984645
H       11.24185778      22.89313690      24.51342891      -0.07709983      -0.69083844       0.02260438       0.01454865      -0.05097252      -0.04961904
H       11.14983107      21.15578795      24.53922254      -0.82114679       1.40310951      -0.62948085      -0.03096788      -0.07731390      -0.00445179
Cs      10.04033603      16.61433044      23.44445981       0.15340118      -0.00637453      -0.11302161      -0.88384605      -1.31839526       2.07310508
N       16.36718042      23.46230585      16.89405243      -0.73173920      -0.68127408      -2.02473182      -0.39246001      -0.36630459       0.79466216
C       16.40524671      24.53617388      15.78754760       1.19999793       0.05324387       1.93989739       0.74439401      -0.07825489       0.11975759
H       17.45372925      24.50777855      15.53756640       0.55942865       0.22436341      -0.69617019       0.12959651      -0.12128021       0.06838978
H       16.21021015      25.54454579      16.18778775      -0.26892804      -0.33895218       0.05653329      -0.15348458       0.01537822       0.05878906
H       15.80123846      24.26089281      14.94890219      -0.66301792      -0.25381197      -0.37072074       0.05606719       0.16582837      -0.24672396
C       16.39250770      22.09775352      16.14003031       0.07712553      -1.12595592       0.87417760       1.00108321       0.49048120       0.38493213
H       17.35816009      22.08103572      15.62885568       0.13997423       0.08506948      -0.17862715      -0.03791821      -0.23649312      -0.07150225
H       15.59791144      21.91384968      15.37286968       0.17550531       0.80346594       0.60489649      -0.15743834      -0.08903620      -0.30507724
H       16.39447283      21.15552827      16.78811047      -0.09287126       1.41221274      -0.14243698      -0.06813973       0.14095913       0.00100316
H       15.57168054      23.63466517      17.50982507      -0.76576537      -0.41750684       0.14248841       0.19041913      -0.16549442      -0.08345595
H       17.18784014      23.49328920      17.50986781       0.52149044       0.10726557       0.03630185      -0.00270791       0.14990301       0.06646963
Pb       7.14383008      19.23767444      19.66511064      -0.01113309      -0.04461385       0.03486990      -1.21184653      -4.67937841       0.58715942
Pb      13.60486770      19.48529066      19.47779378      -0.09927470      -0.15391442       0.17618717      -1.02320716       1.70631517       2.18478872
Pb       6.66536714      19.24695198      12.90591804      -0.12951737       0.11404121       0.00683294       1.98041822       3.13408744      -2.01506928
Pb      13.05358608      19.65143525      13.07999090      -0.01680106      -0.01530164       0.06422274       0.18939963       0.52710425       0.12540916
I       10.28745136      19.43972876      19.65194763      -0.09725082       0.10066609      -0.05338294       0.31959798      -2.09975443      -3.18064839
I       16.87667136      18.67743196      20.12283485      -0.33617184       0.33878765       0.08742254      -1.17712041       1.06474150      -0.16299989
I       12.31397050      16.26638047      20.01627543       0.22498268      -0.33175445      -0.11143837       0.48485082      -0.35154601      -0.10439171
I       13.57652825      22.50388531      19.31993180       0.12613103       0.20131394      -0.02714893       0.83162441       2.42484420       1.20876158
I       16.13602003      18.78418008      13.14662365       0.30641710      -0.05827556       0.13229009      -1.28072390      -0.80997801       0.39619013
I       10.27064870      19.44497014      26.44223244      -0.22647926       0.08604913      -0.13594672       0.24418634      -0.98314950       0.40266480
I       13.36821929      22.75347031      26.26168439       0.15228000       0.31515181       0.19461694       2.47916635      -0.15651085       1.79445655
I       12.43396285      16.53784954      12.98259993      -0.08503040      -0.27269082       0.19658455       2.27301398      -1.73497299      -2.90095592
I       19.77658004      20.20240812      23.25585205       0.00948619       0.04524927      -0.17947890      -1.55685366      -2.19011101       0.80237092
I        7.40215939      19.63393995      16.49056927       0.05175516      -0.05472418      -0.05104706      -2.55997888      -1.06767231       1.32761817
I       12.63451469      19.91277230      16.19912823      -0.01319597      -0.12519058       0.08390510       1.96690410       1.58679009      -2.40330824
I       13.30658890      19.13353984      22.92451209       0.12584584      -0.10700530      -0.01877209       1.43903765       0.57222366      -0.31548626
N       10.09947618      22.95527694       2.19896582      -0.36571496      -0.51065243       1.07621979      -0.21146258      -0.53509042       0.17140332
C        8.72647852      23.09982199       2.88013692       1.29788627       0.40816967      -2.44804749       0.11662891      -0.76686678      -0.18397818
H        8.03975935      22.73861405       2.11322944      -0.49250312      -0.13757307       0.48538190       0.05225685       0.23399529      -0.05944029
H        8.58221383      24.14284737       3.08477000      -0.08475566       0.80853721       0.00182735       0.01668246      -0.11934133       0.08902503
H        8.78624649      22.59445768       3.79371337      -0.22328231      -1.30269716       1.32458859       0.12313596      -0.07928289      -0.34962711
C       11.19253268      23.16900674       3.17648886       0.32026362      -1.01696761       0.75735924      -0.61049970      -0.09483738      -0.14975283
H       11.00293227      24.11136976       3.70604911       0.31043636       0.04764856      -0.16994971      -0.33407421      -0.07601963      -0.13360398
H       12.18438497      23.07740325       2.65726820      -0.73058911       0.28662926       0.46096242      -0.12282582      -0.05959559       0.04653064
H       11.06305447      22.32647277       3.91063891       0.45750875       0.66569605      -0.32294391       0.03817833      -0.20619777      -0.40283237
H       10.22667455      23.63345176       1.44817927      -0.20668788       0.28160267      -0.78284136       0.14940312       0.22722550      -0.14952183
H       10.20859114      21.97797529       1.85430316      -0.17056235       0.36483734      -0.34544649      -0.09695573       0.24995536      -0.03937946
Cs       2.94464396       3.22214916       9.93358220       0.20016962      -0.14650647       0.05140843      -3.73024842       2.56100147       3.12118471
Cs       3.31368501      22.00696451       9.03943920      -0.10410918       0.03360845       0.06201776       0.09334873       2.55096130       1.45222660
N       10.69017604       3.62732509       3.78019414       1.03954905       0.24098892      -0.04982234       0.89393754       0.29356688       0.32516074
C        9.79305459       3.45719948       2.57340154       1.50993958      -0.55626040       0.61504540      -0.09010343       1.42989580       0.00797919
H       10.38200042       3.74258033       1.70498219      -0.02583289       0.17902709      -0.33645464      -0.35752832       0.13801289      -0.11902007
H        8.91126485       4.06084442       2.69225367      -0.58408854       0.11602863       0.04852447       0.13385210      -0.18732493       0.08257702
H        9.66625226       2.37594906       2.53289519      -0.78867591      -0.13726803      -0.26229649       0.00250191      -0.09993931      -0.06551395
C        9.90152388       3.75845141       5.07201030       0.53440585      -0.08048332      -1.20095747       0.81383028      -0.74707899       0.12038913