440
Lattice="25.49079533162322 0.23622445248679186 0.100147179243073 0.1993697403179705 25.736941122652873 -0.07432935564289467 0.11914323986706978 -0.05500304267644525 25.726308198577623" Properties=species:S:1:pos:R:3:forces:R:3:momenta:R:3 energy=-1532.01025390625 stress="-0.0006405694293789566 -0.00024038441188167783 -0.00010209783795289695 -0.00024038441188167783 0.0005673447158187628 -0.00041720474837347865 -0.00010209783795289695 -0.00041720474837347865 0.0010392634430900216" pbc="T T T"
Cs       9.85754599      10.17678490       3.18500473      -0.04920124      -0.27931588      -0.33533355      -0.39254932      -2.69083361       2.14164535
Cs       3.26494951      15.93512099       9.74553071       0.08788443       0.11723064       0.19750647      -3.07414872      -0.57927121      -2.71941494
Cs       3.48098244       9.70705786       9.97759758       0.10286731       0.08031151      -0.04498404      -1.26350212      -1.95304090      -2.98575908
N        8.50325048      16.65334689       4.30926969       0.12695369      -0.02655166       0.46607794      -2.01431767       0.07547054      -0.27351226
C        9.90422240      16.23521431       3.99774925      -0.39415645       1.21751064       0.60887864      -0.09779226      -0.34906085       0.35977014
H       10.02161884      15.90292533       2.99285407      -0.12132842       0.05405617      -1.10799860       0.03294860      -0.12045727       0.03638873
H       10.24707581      15.44319158       4.62479245      -0.22284195      -1.00068608       0.80211773       0.08063357       0.15560329      -0.09930877
H       10.52449150      17.06281255       4.27560026       0.64972006       0.75183641      -0.23563878      -0.05568233      -0.05978086      -0.21787649
C        7.56451119      15.72837907       3.64782775      -0.95645276       1.91926308       0.19409238      -0.19163512       0.90488004       0.88950770
H        6.60110876      15.88543056       4.16673047       0.10290849      -0.23764843      -0.48446810       0.12153114       0.02825395       0.22179136
H        7.97057590      14.78899312       3.83950709       0.39588290      -2.04241798       0.21859672      -0.17034564      -0.00318022       0.05700192
H        7.50841419      15.92861062       2.56660602       0.01045867       0.05193761       0.24977614      -0.17233165      -0.08404170      -0.20228277
H        8.21307503      17.64072145       4.01712747       0.61511839      -0.61735090       0.16855100       0.04750843       0.25219036       0.13346111
H        8.35982807      16.56885839       5.40882062      -0.03916070       0.18781644      -1.13874777       0.18597241       0.20621268      -0.01686856
Pb      -0.06860071      12.97493367       6.87847972       0.06611347      -0.03415695      -0.19890402      -4.31272000      -0.89136961      -1.49448516
Pb       6.71132791      12.68593709       6.30377253       0.00408799       0.10361903       0.64745264       0.33600022       3.75888226       1.22012461
Pb      -0.13016052      12.88501487      -0.35730471       0.14974957      -0.17269116       0.53429690       3.10705962       3.15632565       3.13838854
Pb       6.48019084      12.91544936       0.29822301      -0.00427730       0.02706247      -0.09663558       0.80553698      -0.53763561      -2.56354379
I        2.86714847      13.97875770       6.84112435       0.06364563      -0.20911928      -0.16456043      -1.06667002      -1.60254898       3.77568026
I        9.68281064      12.08085991       6.06631751       0.00584962       0.23774158       0.22709020      -1.60677430       1.36434560      -1.31676495
I        5.96264189       9.81029109       6.62735292      -0.14496040      -0.15824513      -0.11882489       1.09112547      -0.19971009       2.81448974
I        7.13538220      16.17598266       7.31768447      -0.09200427       0.00982989       0.14094549      -2.94874242      -1.47776656      -0.28885874
I        9.75719487      13.27919483       0.92163108      -0.04486856      -0.14120681      -0.17518244       1.04270898       1.17978128       1.28696066
I        3.33742488      12.76788407      12.93688840      -0.27031258       0.17768291      -0.08295120       2.13136574      -0.42456220       1.54106725
I        6.79501147      16.20236994      12.96885003       0.08159146      -0.12740476      -0.22331636       0.17100843      -0.23980340      -0.20848783
I        6.10824072       9.88402314       0.88826710       0.10793754      -0.21344341      -0.06376314       3.05441065       4.79254004      -0.40186083
I       11.99584858      13.29879126       9.62074805      -0.00525272       0.03834695      -0.38468205      -0.60157126      -0.19275911      -1.06467697
I        0.20397535      12.28352962       3.13216793      -0.06435032       0.17667041       0.14869026       0.61749698       0.90148895      -0.95942392
I        5.57919366      12.93819615       3.58838034      -0.23837283      -0.09732266      -0.43378847      -1.87868091      -0.89025855      -3.40858442
I        6.24769748      12.50853548       9.82327483       0.04586763       0.06759077       0.04133698      -3.12708119      -2.72958987       0.81138161
Cs       9.48826001      10.12467127      16.09013807       0.03075481      -0.12654472       0.02935025      -3.11387435      -4.21465992      -1.94600381
Cs       3.91496283      15.68845114      22.50652330      -0.08356538       0.27956773       0.17321666       1.59341362       0.34191405      -2.47227964
Cs       3.57348379       9.70239055      22.59081465       0.04352060       0.02316053       0.05245354      -1.60171280       2.41166392       1.78667067
Cs       9.40508547      15.78662643      16.08243243       0.04984263      -0.13390345      -0.18203494       3.18273742       0.38347297      -2.15509545
Pb       0.49640988      12.89212886      19.25117335      -0.17156875       0.16165090      -0.30654870       0.55440386       1.51980971      -0.12527141
Pb       6.62778388      12.74424461      19.67059870       0.13907434       0.38079724       0.03282598      -2.17365239      -0.85223540      -1.07815014
Pb       0.25528752      12.69597593      12.58755672      -0.03160164       0.03045832       0.43760607      -1.04989042       3.95409560       0.31287460
Pb       6.46748103      13.00423755      13.24944827      -0.13670356       0.09590798      -0.16005699       1.99259980       1.46975574       1.60146555
I        3.47208476      13.23755586      20.06069326       0.10344282      -0.14712568      -0.15574200       1.10789703      -2.66313606       0.68029004
I        9.82227342      12.44358524      19.24539818      -0.11717844      -0.12376556      -0.03272116       0.85420263       0.10601746      -2.04879910
I        5.81215618       9.99704148      18.88691343      -0.04853875      -0.40335385      -0.04419996       6.03598338       0.75321379       0.23274179
I        7.48107535      16.18595854      19.33937542      -0.12029152      -0.02436822       0.37472647       2.27804923       5.92186332      -2.17873826
I        9.57964589      12.75181380      13.03133486       0.09357202      -0.06879576       0.13265367      -0.23721275       1.30598376      -1.97085121
I        3.32207901      12.75242561      25.53547932       0.11641294       0.04361698      -0.10376085       0.39120613       3.01242012       3.80594765
I        6.75601725      16.10704534      24.81623106       0.17108187       0.08996646       0.06964536      -0.51591976      -1.66512211      -0.87425661
I        6.38711919       9.96545813      13.56826932      -0.10008756      -0.37151611       0.16738563       1.43262722       0.44448146       0.57454363
I       12.45423950      14.01943877      22.53334368       0.09674608      -0.21653625      -0.00434083       1.59840952      -1.48841823      -5.23958345
I       -0.10662555      12.76326102      15.79829209       0.09081729      -0.06567159      -0.12336247      -3.23298595       3.01465632       2.39563489
I        6.18512698      13.77461217      16.38593900       0.02508410      -0.24209447       0.02254507      -0.79481902      -1.82642886       1.34502184
I        6.97010145      12.01294879      22.91750697      -0.00067618       0.03211021      -0.10673686       2.14905248       5.36603515       2.90056517
Cs      16.61283427      16.42837517       3.06517570      -0.14003843      -0.14105977      -0.20766305      -0.02006772       1.04781993       1.56421274
Cs       9.89749386      23.21812663       9.59587173      -0.17144954      -0.29125795      -0.01150780       0.04546044       1.14301873      -1.62096988
Cs      10.15352943      17.33056338       9.50662847       0.04540225       0.05428515       0.00603499       0.74648703      -1.30680284       0.31973522
Cs      15.65761582      23.24595684       2.80044675       0.06250730      -0.05096329      -0.10502779       3.53099133       2.77390820      -1.36550721
Pb       6.25968831      19.34206516       6.75126411      -0.04361615       0.00028128      -0.15157040       2.22176439      -4.90412444      -1.04004547
Pb      12.75676682      19.83410001       5.94707516      -0.04661922       0.35894427       0.10623066      -2.67636126       1.79393539       3.92348148
Pb       6.47490274      19.34009949      -0.18747595      -0.02803692       0.00259588      -0.08607766       1.16678527      -2.72654727       2.31990653
Pb      12.71165987      19.90915654      -0.17044488       0.08924909      -0.13673629       0.02064117       2.82923564      -1.05333655      -2.28604864
I        9.24547071      20.17579018       6.78818145       0.23960814      -0.00311271      -0.04032560       3.82161370       0.00775321      -1.78392651
I       15.70924431      19.34767587       4.94823482      -0.04473928       0.14479911       0.08538754      -0.13888475      -1.57630611      -1.88439411
I       12.95671004      16.86054332       6.53802149      -0.14764386      -0.39009368       0.07647863       2.52785884      -2.25776223      -0.17400196
I       13.94237565      23.12148102       6.10291814       0.04231873      -0.35955286       0.08772666      -1.14161412       0.23108662      -1.23387635
I       16.09035403      19.87083452       0.47321690      -0.19061106      -0.15695818       0.05214069      -3.24815770      -2.83163969       1.60382687
I        9.52574495      20.34537665      12.63570984       0.39465006      -0.15153553      -0.27135597       0.64876858       1.51077852      -3.88595351
I       13.95576513      23.10948876      12.21508879       0.02033631       0.16497789       0.08630690      -3.72207865       1.61563361       0.62837324
I       13.06739996      16.64905127      -0.01709538      -0.14111671       0.18709822       0.12822599      -2.57568428       1.55572952      -0.21156134
I       19.23270667      20.21345063       9.27991698       0.02640152       0.00288505       0.09937500      -1.29048286       0.59696966       0.01628747
I        6.55208074      19.38200970       2.95446095       0.25750318      -0.08664590       0.12859385      -0.23773769      -0.68170993       1.06816117
I       11.71242933      20.83106831       3.17714005       0.24444424      -0.21136702      -0.27603114       1.41985795       2.94373192      -1.06498039
I       13.02371404      20.51741872       9.31205911      -0.11434527      -0.08165487      -0.03317445       0.99352724      -0.32894335      -3.47289654
Cs      15.24488203      16.23147265      15.82219930      -0.01972905       0.07568884      -0.06897219       0.41814047      -0.31235967       1.03183165
Cs      10.02073290      22.67637516      22.31787734      -0.01788288       0.08749933      -0.15165770       1.44275725       1.95491857      -1.01814876
Cs       9.80245197      16.55630771      22.31904305       0.00635996       0.11405081      -0.00558037      -0.36348223      -1.41097231      -2.55814176
Cs      15.68759412      23.13225172      15.68919801       0.00754391       0.00707720       0.09308290      -0.07496580      -0.64411587       3.10117383
Pb       6.44318292      19.37820516      19.39046823       1.11845866       0.19716190       0.08630992       0.14265549      -0.62040463      -0.99149599
Pb      13.25908173      19.44573779      19.00676653      -0.27145977       0.08589106       0.06048728      -1.81519118      -4.69209662      -0.30289504
Pb       6.48878705      19.23169231      12.90043897      -0.12171612       0.17003077       0.18789019      -0.08116355      -1.88707424       5.06093925
Pb      12.82826199      20.25428678      12.59658150       0.01806562      -0.37126092      -0.02848253       2.29564762       1.88455102      -3.30231468
I       10.04878774      19.87126190      19.55358368      -0.23079037       0.10986465       0.04448230      -2.02926295      -2.34848002      -1.01447573
I       16.20470526      18.38777015      18.88619965       0.09645427       0.05053741      -0.10672539      -2.37453417       1.25728891      -2.24038468
I       11.90220386      16.51940623      18.48849000       0.34750646      -0.19183117       0.16599282      -1.00947843       1.73787748       1.39669828
I       12.99343142      22.62478347      18.74071062       0.13768880       0.18902968       0.08152876      -4.61930354      -0.80056421       0.87913253
I       16.19672336      18.64691883      12.90564183      -0.21656999       0.15554011       0.05853169      -0.26726241       1.57875492       1.62056271
I        9.60095214      20.06879162      25.00002882       0.02985761      -0.15156852       0.01475773       1.40129447      -2.21190583      -1.00979035
I       13.10280300      22.96747631      25.03848577       0.04354187       0.02040521      -0.08346565       3.32513484       0.11690618       1.42257508
I       12.58462581      17.01673978      12.57211211      -0.19002548      -0.27258309      -0.02891017      -1.74241243      -2.80165131      -0.87744532
I       19.16176201      19.33063299      22.20559446       0.17106626       0.03643432       0.20665780       0.72135280       0.21173314      -0.62210702
I        7.01086171      18.49408295      16.15810687      -0.09691275       0.42950926       0.01440815       1.95104289       0.40584991       2.13499973
I       13.32229983      19.97113926      15.73177071      -0.07311842       0.03093997      -0.03582022       0.68068249      -0.95027111      -1.30691360
I       13.29272764      18.84882951      22.19385861      -0.07293221       0.12475827       0.20426275      -0.95875764      -0.91386338       2.59964876
Cs       8.60661415      22.59448994       2.78848154      -0.12070368       0.11014657       0.05303092       0.65175020       5.02325664      -0.85851088
N        3.29091335       3.01491893       9.39381465      -2.12728479      -1.35256269      -0.43471142       0.34976434      -0.22699580      -0.02853282
C        2.96900386       4.29352410       8.73352623       1.40678291       1.08244987       0.94478921      -1.11523005      -0.93747817      -0.95895267
H        1.87259900       4.40008291       8.75408416       0.31864336       0.24114830      -0.11692432      -0.07223530      -0.21946378      -0.05247870
H        3.37573028       4.28046992       7.69909372      -0.18185399       0.18101009       0.45965831       0.04869842       0.14743165       0.00235732
H        3.51489793       5.08127081       9.41184927      -1.19457672      -0.87323559      -1.40165680       0.21546444       0.15350176       0.18548088
C        2.46779455       2.89431363      10.67434412       0.07890976       0.44854182       0.71243711      -0.89938454       0.59640300      -0.72085373
H        2.41061316       1.83887403      10.99844965      -0.18858404       0.18911666      -0.35907846      -0.12021703       0.46236575       0.16214031
H        1.43170862       3.38039315      10.55595465       1.34374192      -0.82984141      -0.22332756      -0.14989490       0.02902205      -0.00805754
H        2.95160995       3.41556625      11.55897921      -0.09353559      -0.17527414      -1.18594455      -0.01863058       0.10141179       0.01343669
H        4.28596461       2.89660632       9.48500705       1.04756449       0.15134435       0.73423841       0.02600298      -0.10310973       0.20237675
H        3.09794052       2.17169893       8.67846429      -0.28180740       1.01789458       0.96407741      -0.07316690      -0.26718519       0.00396053
N        2.61137884      22.63101363       8.61266388       0.65112603      -0.47531650       0.78256771       0.49841353       0.26856489      -0.17976146
C        2.47966800      21.25872311       9.31044474       1.29809516       1.32374351       0.49543144      -0.48938562      -0.29453775      -0.36403328
H        1.55792553      21.09971756       9.85018228      -0.93429506       0.34696477      -0.27297086      -0.00757309       0.10135854       0.07080697
H        3.23086413      21.15051685      10.10777286       0.32869781       0.46296003      -0.26787109      -0.27280897       0.23070267      -0.14823700
H        2.69294613      20.49578883       8.59052178      -0.15714047      -0.56939950      -0.67129929      -0.15534159       0.21406813      -0.03512277
C        2.60750981      23.87708473       9.52284667      -0.11697333      -1.66177392       0.46821357       0.06687954       0.31863139      -0.04406833
H        2.92905933      24.72723518       8.91741796      -0.10084046       0.11197503       0.13914626      -0.19823138      -0.00198094       0.10402819
H        3.32609907      23.64008326      10.35037925      -0.39579268       0.32076228      -0.59464595       0.20345743      -0.01525085       0.06821174
H        1.57960334      23.96551388       9.96734097       0.69705242       0.09804073      -0.43885692      -0.31620603       0.07767837       0.25655721
H        1.88637335      22.68593488       7.89266211      -1.27411628       0.19612010      -0.18655765       0.02969284       0.01056260       0.00641757
H        3.42289988      22.62833833       7.94740175       0.35759790      -0.04113954       0.77234170      -0.07280813       0.18060469      -0.00173607
N        9.76648542       2.29323932       3.97668763      -0.10238197       0.60252639       1.18102936       0.09052699       0.35141596      -0.34393527
C        9.87931684       3.76061911       3.48074063       2.15442780      -0.67973406       2.50982819      -0.10313030      -0.48555329       0.23582166
H       10.57403565       3.80891553       2.67530255       0.28928036      -0.13081603      -1.11774969       0.05692381       0.25982195       0.12918420
H       10.34879987       4.40562009       4.30222256      -0.60092445      -0.97974978      -0.69235206       0.10112218      -0.05963492       0.12517867
H        8.91811684       4.12323764       3.31005264      -1.75635924       0.53796095      -0.70129509       0.03702446       0.25932407       0.16621073
C        8.99550809       1.36480707       3.05046202       0.14472085      -0.39663158       1.47971894      -0.28213035      -0.83562060      -0.00359481
H        8.39343439       0.61329663       3.64144244       0.17460316       0.96572245      -0.15863761      -0.08975881       0.06055673      -0.12222314
H        9.72356400       0.72219278       2.57373559       0.37462590       0.18548844      -0.88741799       0.03244253       0.11732980       0.36239383
H        8.37927797       2.01142202       2.43057436      -0.01797497      -0.19283740      -0.35682392       0.01687034      -0.08485657      -0.02275573
H        9.20075504       2.39280393       4.88934764       0.76631151      -0.32261298      -0.92585953       0.43888799      -0.03653666      -0.03175362
H       10.74809164       1.90272672       4.23121286      -1.31133891       0.50597918      -0.37560855      -0.27404437       0.13693807      -0.06668307
Pb      -0.29351100       0.03166171       6.25683573      -0.02488454      -0.01981006       0.08361834       1.02664670      -2.26110682       0.57336141
Pb       6.11130091       0.18493739       6.28960480       0.27027228      -0.48117917       0.09087632      -0.61777346      -1.25828991      -1.33229127
Pb       0.09219446      -0.23160911       0.03281320      -0.34523824       0.37121392      -0.25492786       0.89727804      -2.09485286       1.85012158
Pb       6.15059694       0.24290913       0.06356980      -0.11943963      -0.16935193      -0.17589205      -1.85135193       2.95495922       0.25818271
I        3.22384917       0.75790538       6.84760766      -0.31794897       0.00275699      -0.20857639       0.16900766       3.14952356      -0.58079297
I        9.71945384      24.63676686       5.93665057      -0.09675119       0.08362771      -0.05055550       0.82003348       0.88462199       0.51249402
I        5.41326376      22.53920293       5.80848064       0.13244291      -0.06458530       0.30641667      -1.23742769      -0.10925481       3.27481214
I        7.02406524       3.08757834       6.42844738       0.14894658       0.18492627       0.08248571       0.62727772      -2.27673666      -1.95758344
I        9.45374346      25.42268274      -0.58444120       0.19300706       0.00388949       0.15785791      -0.60359017      -1.36205054      -1.05723380
I        3.13257390       0.34436082      13.38108740      -0.32461315      -0.14154086      -0.04449101       0.24741931      -0.03977584       1.29705155
I        7.67391042       3.66049845      12.31277354      -0.26239594       0.04020270       0.30606831       2.40938529      -1.33050483       2.55278537
I        5.87703775      22.76952146      -0.15098390       0.00405129      -0.16094917       0.08624239      -2.12057031       1.07981671      -0.02095436
I       11.98600031       0.17258844       9.21282848       0.11501081       0.13885020       0.48467063       0.25929896       1.63407514       0.08439504
I       -0.14712143      25.78018165       3.03801491       0.08751130       0.05063182       0.31096040       0.89214622       0.03179450       1.19908588
I        5.29800464       0.22158141       3.20901384       0.14531762      -0.13641181       0.03785931      -0.61562662      -1.91908086       1.02055355
I        7.11844335      25.79785537       9.72929781      -0.14865198       0.01308170      -0.02065332       0.45182842      -1.87377735       1.09710347
Cs       9.19357869      21.99811222      15.70288512       0.07932127       0.16909830       0.47577324      -1.19618345       1.06349317      -0.73986777
N        1.94396212       3.56366771      23.11637096      -0.04521437       0.67080645       2.91478915       0.40008839      -0.39225822       1.13848327
C        2.98539503       4.54616022      23.51979974       1.97792975       0.26106891      -0.98897474       0.60260631       0.22658351       0.18830676
H        2.73606919       5.07598544      24.45011308      -0.17767373      -0.17594716      -0.07812503      -0.02744296       0.07324077      -0.14052429
H        3.12886347       5.28396143      22.68710841      -0.21816087      -0.50077520       0.50492568      -0.03604465       0.16243307      -0.11437019
H        3.96364364       3.99133655      23.66952961      -0.94935941       0.51927656      -0.16747958       0.03482314      -0.06902252       0.15461441
C        1.71548758       3.29525919      21.75274394       0.22481746      -0.87363366      -2.64853774      -0.92922340      -0.81456966      -0.17532090
H        0.99897167       2.43089608      21.68784351       0.74318226       0.49400569      -0.25531733       0.11347082      -0.11200884       0.35760673
H        2.69459244       3.13204223      21.26385603      -0.36650618      -0.47740702       0.15023075      -0.06188245       0.17028953      -0.14957881
H        1.28735002       4.16114798      21.23267315      -0.15134499       0.19853458       0.25866596      -0.02234156       0.30406838       0.00355911
H        1.07692638       3.97786638      23.44831156      -0.65889296      -0.08653942       0.55195428       0.19809497      -0.08595319      -0.05512098
H        2.10802146       2.71238508      23.69993908      -0.22456656      -0.07509058      -0.35300180      -0.07150799       0.38249011       0.23611251
Cs       3.18245523      22.43789886      21.75044510      -0.04545893       0.21695340       0.13626477      -0.48746658       0.27611086      -2.41672793
Cs       9.71284006       2.41787905      15.77631536      -0.26242532       0.16403853       0.09333755       3.26579640       0.27924466      -0.85586742
Pb      -0.61847172      -0.23741087      19.26602604       0.16393178       0.17370610      -0.19947313       1.29564367      -3.41177957      -0.26714230
Pb       6.19488613      -0.34836132      19.10026218      -0.55177397       0.25533321       0.29259534       1.70156283      -1.23155545       4.04245950
Pb      -0.64464398       0.03153744      12.39353927       0.08331096       0.12374647       0.37981063      -4.35870801      -2.16671754      -2.02948532
Pb       6.03465247       0.02554705      13.00826991       0.44838579      -0.06240810      -0.08804850       1.16302660      -1.09083099      -1.87055612
I        2.54500792       0.05355863      19.31706335       0.10126690      -0.04754014      -0.13131743       2.89528486       0.36565706      -2.10161048
I        9.12281973      24.80276955      18.64749349       0.77223074      -0.13197347      -0.16845438       2.03118115      -1.98720683       3.84066250
I        5.58426578      22.39612837      18.54218906       0.18652404      -0.03982871       0.15064857      -1.49540610       0.51601452       0.00439075
I        7.55255244       3.80225421      19.20657488      -0.09650235       0.00356456       0.08999451       0.37241510      -1.33458651      -0.04911071
I        9.68692038      25.21221934      13.10636103       0.13663103       0.00573582       0.01359146       0.82361252      -1.91875153       0.52422837
I        3.06149383       0.83476001      25.58696331       0.13737172       0.02944654      -0.16528260      -1.98427847      -1.61066046      -0.70038095
I        6.46048902       3.31431295      25.54636611       0.16056251       0.23931617       0.03705176      -0.83530277      -1.92309509      -1.34103847
I        6.27148593      22.53996344      13.46098081      -0.23449156       0.27388830      -0.02051526       1.02449134       0.42210055       3.67465075
I       12.06172534       0.50667399      22.10119421      -0.07176225      -0.04513677       0.30571471       3.57687436      -2.54752179       0.05099191
I       -0.46546742      25.75449677      15.93552098       0.04537581      -0.20820371       0.15794854      -2.71954496      -1.85007930      -3.63343159
I        5.83879192       0.92133910      16.26103613       0.11158153      -0.06467794      -0.09680783       1.43856719       1.53212628      -0.34507271
I        7.14599018      25.64200618      22.32261916      -0.19468927       0.02906045      -0.17361642       1.66983029      -0.38850112      -1.77700540
Cs      15.41258600       3.75986619       3.28714884       0.06627514      -0.00157988      -0.11249143       3.19592066       1.50489591       0.25340451
Cs      10.08526537      10.00512187       9.85219485      -0.22382036       0.04818731      -0.11320540       0.44708483       1.64280593      -0.65640049
Cs      10.09653210       3.52329342       9.69458777      -0.04889186       0.08285443       0.03043259      -1.41984488       2.29903972      -3.49550396
Cs      15.53970343       9.92796780       3.69584432       0.12110231      -0.05517232      -0.27634573       2.01935117      -0.69176977       0.99753627
Pb       6.12681684       6.02421885       6.61367457      -0.07289767       0.44588615      -0.11762648       0.46275631       1.28871318      -5.69416906
Pb      12.29095515       7.04424427       6.31504906       0.34962281      -0.13893062       0.17657483      -5.42810732       1.38434951      -1.15468883
Pb       6.24789586       6.55251249       0.41782791      -0.16332930       0.08662338       0.10981809      -1.25881380      -3.35851423       1.35338370
Pb      13.05702880       7.11330931      -0.39119375       0.10242366      -0.17827504       0.08463594       0.49924640       2.26237950       0.17601083
I        9.36720523       7.42148981       6.94434279      -0.00652430      -0.07826516       0.01097513       1.25296983      -0.27192246       0.49529957
I       15.81442226       5.97047833       6.21605989      -0.02104081       0.12017095      -0.05224041       1.76751544       0.75655182       0.84598149
I       12.16756795       3.41724134       6.69911603       0.04159684       0.34302797      -0.14608284       1.08476138      -0.64536398       0.54355863
I       13.27317889      10.22762682       6.52126681      -0.05708144      -0.15396376       0.22808520       0.61332957       0.24008191       0.84006684
I       16.09157345       6.70898930       0.66890222       0.01100776      -0.08289923       0.03035173       1.42197404      -0.12823756       0.23434900
I        9.39009678       7.48953199      12.62142591       0.41977522       0.13422156      -0.12731421      -1.01241427       0.76331775      -0.04664574
I       13.25478327      10.31509835      13.05954243      -0.01540741      -0.11402908      -0.17797825       3.01825187       3.35236195       2.14336306
I       12.36117121       3.74715978      -0.24754324       0.01943553       0.04222903      -0.03655113       1.83614162      -0.12556969       1.45816519
I       18.27655094       7.33804926       9.21955003      -0.07564066      -0.03754765       0.42221999       3.21138810      -0.39780374      -3.60641039
I        6.85043643       6.45234729       3.60141741      -0.03039075       0.06372995      -0.10917029      -2.11737295       3.39764458      -2.36392074
I       12.63849095       7.38196776       3.29499499      -0.07919244      -0.03255075      -0.08766623       3.09156875       1.59070204      -0.91443209