560
Lattice="25.748169653660373 0.08522178018766577 0.029084788637618392 0.03593318248487971 26.05817631212848 -0.026877908942202287 0.03788127476828742 -0.05804432246257717 26.10596813476243" Properties=species:S:1:pos:R:3:forces:R:3:momenta:R:3 energy=-2164.078369140625 stress="0.001329154591076076 4.648681715480052e-05 -1.928870551637374e-05 4.648681715480052e-05 0.001972120720893145 0.00017720769392326474 -1.928870551637374e-05 0.00017720769392326474 -0.0003689979494083673" pbc="T T T"
N        8.75173841       9.24121309       3.04016839       0.45588032       1.29739328       0.03051357       0.00509743      -0.19196545       0.95027576
C       10.23261994       9.53786703       3.22235702      -0.17955744       0.03405333      -0.20508826       0.54746075      -0.38654174      -0.37788652
H       10.55439470      10.35526969       2.51003028      -0.35390817      -0.96987284       0.51140101       0.15394675       0.01911898      -0.23525637
H       10.81409848       8.59046863       3.13924763      -0.31264414       0.61115382      -0.26537372       0.11688457       0.02419143       0.03689915
H       10.30702821       9.88807004       4.24785367       0.25074951       0.28356125       0.25213795       0.37219615       0.09065651      -0.10234931
C        7.86684970      10.47775854       3.01427714      -0.53277901      -1.17748670      -1.65352314       0.05771088       0.23041580      -0.55836088
H        7.83017249      11.04726289       3.90705044       0.57055553       0.35050663       1.27213064      -0.12405415       0.20111936       0.20609125
H        6.86094553      10.06732390       2.85398610      -0.05943135       0.22267695      -0.04543618       0.00591159       0.13843946       0.36923519
H        8.13707581      11.09948731       2.14458574       0.13074391      -0.15715321       0.20658848       0.24656513       0.05398611       0.01684052
H        8.40340295       8.64293772       3.78928907       0.01919338      -0.41806850       0.35454802       0.12228230      -0.14892487      -0.22607376
H        8.59892357       8.74704070       2.15945343       0.04262946      -0.30131374      -0.39590326       0.04319300      -0.09097776       0.06144822
Cs       3.32983242      16.44155772       9.77644318       0.02520245       0.05699995       0.11875241       1.29598818       1.93950841       2.87163061
Cs       3.15045181      10.01330860       9.64807659       0.04898969       0.07663663       0.00907690      -2.06936437       1.49743133      -1.45114759
Cs       9.23840223      16.53686808       3.10306938       0.02871474       0.01106945       0.02624289       0.82420241      -2.40466995       0.17669880
Pb       0.05362865      13.02876237       6.80961388      -0.15257804       0.04392842      -0.10493841       0.78415358      -1.87034633      -1.84065822
Pb       6.58820121      13.12529898       6.77370329       0.02781510      -0.01280775      -0.12615793      -1.70585084       1.55519961      -5.10162923
Pb      -0.11595021      13.17280380      -0.38665926      -0.17449456      -0.09800656       0.09958546       1.83188929      -0.71016473      -3.31221867
Pb       6.16301012      13.51919332       0.26844425       0.10887332      -0.07963294      -0.46051287       2.45386589      -0.77220509       3.99516953
I        3.13513560      13.62613674       7.20584697       0.07010385      -0.13508017      -0.17199748      -4.60613458      -0.89530334      -0.26417325
I        9.59686254      12.19192854       6.60429449       0.04748116       0.15914850      -0.11456610       0.60864780      -1.28744711      -0.63210021
I        6.07322019       9.81205229       6.89545641      -0.03637089       0.25725798       0.15153042      -1.36391540      -4.23825046      -0.06307211
I        7.21613543      16.53039940       6.43330780      -0.21183084       0.02302768      -0.01567333       0.40843253      -3.98224775      -1.63372395
I        9.76992988      12.56713272      -0.04518095       0.00611819       0.18437645       0.00067610       1.71506839       0.16492495      -1.73743855
I        3.74955137      13.94915954      13.15633883      -0.23976448       0.04085791      -0.18351838      -0.02764157       3.92550749      -1.36384816
I        7.61641922      16.45640677      13.02887828      -0.04854435      -0.08316731       0.04510114      -3.45705176      -0.91829782       1.55121052
I        6.72730301      10.26428407      -0.65739043      -0.15931294       0.02444670       0.11725832       1.70877300      -0.21111020       3.50754051
I       13.27388810      12.18898137       9.72773597      -0.01633780       0.06486303      -0.10290860      -2.77261928       0.74578729       0.69375810
I       -0.11713712      12.53922944       3.41390644       0.16403806       0.00294777       0.20218749      -0.99569274      -3.45278272       2.66980493
I        6.11291181      13.91910924       3.25527885       0.22370642      -0.07316538       0.19166403      -1.98017321       0.10708439      -0.38172673
I        6.64419844      12.89960182       9.79164130      -0.12460131      -0.02907128       0.06711281       1.45913884      -1.47743962       1.38568369
N        9.98546950       9.69588221      16.81559533      -0.94638397       0.82849463       1.24256955      -0.68612240       0.57635071       0.55348297
C        8.95840607       9.63236610      15.75481005       0.38944881       0.29852024      -0.50799451       0.81115215      -0.81592427       0.05691797
H        9.36705726      10.34139120      15.01465996      -0.68661013       0.03397037      -0.08319401       0.14234397      -0.15502895      -0.02188741
H        7.92233755       9.85321474      16.05966843       0.43422566       0.08480989       0.22603520      -0.29334542       0.31578201       0.33098904
H        9.01305894       8.65584029      15.30241697      -0.11403520      -0.68015056      -0.22448541       0.09932663       0.22640688      -0.19670435
C       11.33834674       9.65275450      16.24542533       1.74342592      -2.35707561       2.32058915      -0.33165004       0.09592973      -1.05657998
H       11.48263213      10.43622297      15.57422577       0.22362638       1.49400688      -1.32346872       0.08889253      -0.10600539      -0.17809328
H       11.52884811       8.63647290      15.77213220      -0.43280691       0.94540767       0.17198555      -0.03600467       0.06307507      -0.31793700
H       12.11808813       9.69068859      17.09232925      -1.06895748       0.18951232      -1.01825223       0.11145212      -0.06571458       0.22179564
H        9.91137872       8.98080258      17.56077989      -0.23699032      -0.87822904      -0.11857916      -0.21808520       0.03482137      -0.05154829
H        9.74771066      10.54136633      17.40895232       0.71410011       0.11431032      -0.50146057       0.18658390       0.09400298       0.14170332
N        2.82441205      16.84552192      22.27062651       1.62504667       2.63321833      -0.32509941       0.27558649       0.09686870      -1.08096818
C        1.63838401      16.02353080      22.47857692      -0.48685630       1.34357191      -0.38592484       0.08031843       0.00305878       0.09958836
H        0.88903548      16.51223899      23.10302526       0.16585973       0.16662277       0.20091681       0.00695279      -0.05763422       0.22276589
H        1.97265383      15.12154802      22.89421935       0.18756737      -1.65651822       0.61901409      -0.02642019      -0.02109322      -0.00029698
H        1.25600625      15.98587914      21.48802174      -0.98296103      -0.98374596      -0.93501935       0.05760348      -0.05448849       0.19030163
C        4.03673193      16.11812025      21.68522663      -0.12671929      -0.84880740       2.86076672       0.41715411       0.51712220      -0.03184218
H        3.99026698      16.12286798      20.61333787       0.12822449       0.01214780      -0.67760944       0.06473944       0.01209613      -0.17319694
H        4.02927981      15.08758483      22.13602779      -0.30444765       0.50965090      -0.71732884       0.09334677      -0.10444935      -0.09274512
H        4.93955788      16.52876413      22.16858475      -0.10610421       0.47285009      -0.66189929       0.34759247      -0.35474844      -0.22608608
H        3.02796214      17.43817851      23.12236083       0.28921978      -0.87696205      -0.16206222      -0.21469075      -0.00494712       0.05526440
H        2.66412929      17.62617604      21.57649072      -0.39664376      -0.60605855       0.40522915      -0.09058904      -0.06675693       0.04271679
N        3.84518943      10.20078015      21.38271227       1.01238918      -0.42419413       0.09373988       0.21134099      -0.56567099       0.62448699
C        3.59527325      11.06637205      22.59739641      -3.07533582      -0.49534633      -0.91247278       0.22227630      -0.19904017      -0.45477625
H        4.13680613      11.95688996      22.55633249       1.34004018       1.48301706      -0.17253665       0.12807032       0.14596145      -0.20852429
H        3.73230910      10.56402257      23.54044204       0.36161613      -0.64858108       0.27577473       0.26129207       0.03351275       0.02713120
H        2.49457197      11.38491597      22.53623083       1.18791716      -0.49535227       0.14347850      -0.00657810       0.00737188       0.02845980
C        3.14862301       8.86999108      21.49590124      -1.18148700       0.44116515      -0.77601648      -0.95507952       0.34879133      -0.16119886
H        3.56179331       8.27267108      22.27105272       0.73085547      -0.32956286       0.94983506      -0.10559051      -0.04219478      -0.15421915
H        3.15109521       8.26870702      20.57015820       0.35681192       0.43269666       0.02109735       0.01020562      -0.05467392      -0.25083660
H        2.07545034       9.05786838      21.72346548       0.46128750       0.06326589       0.07797342      -0.10541504       0.17663811       0.05254292
H        4.92017515      10.07242941      21.24147004      -1.46058638       0.12817320      -0.09155819      -0.19502063       0.07897048      -0.23041942
H        3.46545912      10.69753719      20.52449057       0.47516359      -0.15725457       0.57739617       0.04314785      -0.07298573       0.06798605
Cs       9.85135396      15.44019505      16.18987346       0.03848640       0.06835598      -0.01713518      -2.07411167      -1.07089797       0.54659898
Pb      -0.13697280      13.04833251      19.57500100       0.03162231       0.06259723      -0.06032394      -0.95673738       3.20809376      -1.48662016
Pb       6.60918021      13.04726955      19.53073684       0.02291788       0.10987491      -0.00542484      -1.74962463       0.32493480      -2.75947149
Pb       0.30225470      13.60689043      13.33833027      -0.06840894       0.11617558      -0.06209280      -0.69802921       0.45934640       0.74872073
Pb       6.83827808      12.96069805      13.01100919      -0.08426819      -0.03725219       0.05147571      -2.27390637       1.47161579      -2.48466525
I        3.40898155      13.25464575      19.35638301      -0.11740530      -0.14074960      -0.05472469      -2.65863029      -2.25862088       0.63872246
I       10.01002773      12.56213915      19.22963527      -0.01109653      -0.02895188       0.09936868       2.22526738      -1.32807319      -4.77356740
I        6.80798056       9.77800935      19.26503224      -0.06202237      -0.03579927       0.10649479      -0.75871561      -0.16359947       0.40711658
I        7.20103078      16.11700902      19.05726816       0.14358611       0.23105717       0.14216598       1.25772191      -3.14054084      -2.38835389
I        9.92239538      12.40769844      12.91462777       0.32284695       0.06060517      -0.02623458      -0.55419202      -2.46019202       1.23140179
I        3.00656303      13.55215108      26.13968089       0.32851017       0.11357813       0.03808230       2.52655853       2.23923072       1.30567236
I        7.17505574      16.62177228      25.86966625      -0.00746970      -0.22338060       0.05126938      -0.09682216      -4.28843117      -1.95050463
I        6.37722792       9.71422517      12.98733918      -0.21518110       0.13325529      -0.24178189       1.41529938      -0.37267329      -2.82024126
I       12.84827928      13.20431260      22.90712819      -0.13150814      -0.00638735      -0.07877190       3.16414056       5.59056045       2.42995719
I       -0.38359388      12.99006631      16.43553099      -0.03607060       0.00907389       0.00690326      -0.61432499      -2.69502868       2.95132569
I        6.75782607      13.27133292      16.26916626      -0.04416126      -0.10782415       0.01234194       1.54503330       5.31614641      -1.58838639
I        7.02217812      13.62842223      22.91088200      -0.12364994      -0.27134141      -0.13689847      -0.77331594      -1.06384749      -3.44798563
Cs      15.87141017      16.14517163       3.47388595       0.16491347       0.04871792       0.00676383       2.37769089      -0.42700015       0.45266268
N       10.04874670      22.12018952       8.62601758      -2.07117222       0.27360153       1.52593598       0.79933982      -0.36796093       0.49556046
C        8.52200448      22.15374916       9.00072030       1.26436596       0.86665668      -0.10568222      -0.36329849      -0.59219833       0.23377231
H        8.26733124      23.14045169       9.47413411       0.33342453      -0.52899642      -0.75559203       0.04078174       0.19738579       0.01127089
H        8.36460394      21.42254830       9.75338510       0.02317236      -0.95904651       0.87132553       0.08833364      -0.19491053      -0.05021161
H        7.90224802      21.87629512       8.15237260      -0.02066503       0.29739826      -0.39886725      -0.43151836      -0.28716950      -0.10823640
C       10.89843304      22.29977178       9.81545357      -0.21489691      -1.06941971       0.55510495       0.66123806       0.13865800       0.29399237
H       11.93386143      22.04643927       9.59250708       0.24900007       0.40506230      -0.22150521      -0.05174809       0.08544713       0.16363574
H       10.59350363      21.54920822      10.58436527      -0.14052079       0.55836390      -0.33173984       0.19577138      -0.18059824       0.07713686
H       10.72650788      23.31339607      10.15380670       0.22581030       0.32541041       0.35443214      -0.00497076       0.07751449      -0.07316190
H       10.17115991      22.92351093       8.05034853       0.26534693       1.12414939      -1.20918927      -0.03406816      -0.19163152       0.01232405
H       10.30479730      21.31192955       8.05280555      -0.01438644      -0.79284363      -0.33064758       0.12119133       0.18572692      -0.08071160
N       10.20397611      16.17697159      10.23434960       1.15458938       1.28973242      -1.57023232       0.72325474       0.07757493      -0.18538795
C       10.06600427      14.91459637       9.50721418       1.48340344      -0.18852698      -1.58338335       0.14603927      -0.37247754       0.03055748
H        9.99300837      14.06472325      10.16527394      -0.52546794      -0.36879138       0.51824428       0.03326182      -0.06494404      -0.05230292
H       11.02346260      14.73152802       8.97191309      -0.37440043       0.19604494      -0.05064345       0.14453171      -0.53619891      -0.07003165
H        9.28254712      15.00284040       8.74888339      -0.22543989      -0.10059960       0.26908794      -0.00151351       0.03560833      -0.02887624
C        9.84679026      17.46118031       9.35672733       0.70123916      -0.92619696       0.79977124      -0.20278146       0.44327138      -0.21344610
H       10.50037349      17.51888968       8.44929347      -0.05578493      -0.14701245       0.84747049       0.04558482       0.01738003      -0.15956297
H        9.95804005      18.35208490      10.03864039      -0.26763583      -0.72474148      -0.74865423      -0.03866437      -0.01638576      -0.12188774
H        8.83713524      17.24611001       8.98646992      -0.10861515       0.37355993       0.29247193       0.00930481       0.05676613       0.18108626
H       11.17812568      16.22432769      10.66543297      -0.90171350       0.27225023      -0.07826400       0.17051633       0.12540808      -0.08828423
H        9.54077937      16.11588882      10.97581475      -0.92587571       0.41243294       1.40966774      -0.17293232       0.04456478      -0.06627078
N       16.05362224      23.93331165       2.59067413       0.77819928      -2.00117619       0.67396584      -0.68888478       0.37825564       0.49019955
C       17.33014954      23.86493642       3.37349283      -0.82969247      -2.56971549       1.06054474      -0.43620165      -0.72062445       0.29748870
H       17.60356659      22.75703192       3.42581709      -0.13078423       1.35392345      -0.26661818       0.31176271      -0.18921746      -0.02282159
H       17.16651860      24.17909180       4.43412491      -0.08743462       0.06931744      -0.72969159       0.30058750       0.14409665       0.11836338
H       18.07175084      24.43146192       2.87783684       0.87438497       0.70754184      -0.46369687      -0.09129834       0.17236956      -0.29603885
C       15.09537458      22.77429859       2.81742503       0.63255461      -0.30921340      -0.41271449       0.21918944       0.18222326      -0.14379980
H       15.63722580      21.81089027       2.79642059       0.21460217       0.43130037       0.04486070      -0.08312443       0.07727140       0.03441650
H       14.38947763      22.74327946       1.99844923      -0.31954095       0.17131990      -0.37421402       0.22206101      -0.09753289      -0.00255855
H       14.53740026      22.84542134       3.73784760       0.06039316       0.38845372       0.62063638       0.08562270       0.01062924      -0.31177345
H       16.27959984      23.97715127       1.59950986       0.11370757       0.11407821      -0.57362790      -0.17582078       0.08196193      -0.00589088
H       15.63509024      24.80619197       2.84302492      -1.11299023       1.37974325       0.26308094      -0.06084045       0.20960939      -0.08444773
Pb       6.27404291      19.65447871       6.32935661       0.04735068      -0.16182523       0.02549001       4.45706366       2.63998409      -2.48869661
Pb      12.93390673      19.15689450       6.53562984       0.05845222       0.06900910      -0.23393903       1.33696926       0.95589180      -5.90028403
Pb       6.31889234      19.71285622      -0.22203587      -0.08315177       0.05641773       0.04208036       0.73741435      -1.45491363      -0.83829134
Pb      12.85758380      19.37855352       0.25694029      -0.03025897      -0.01201733      -0.34940361      -1.69052658      -2.12796595       0.86221686
I        9.83361251      19.93482592       5.97844894      -0.33118129      -0.18672973       0.19444838       0.67875547      -2.21567314       2.38475872
I       15.94304118      19.62275777       6.09591240       0.07199308      -0.13333430       0.07241197       1.08423475      -0.12364403       1.20146554
I       12.97321929      16.02825329       6.17165324      -0.09843343       0.10638961       0.00195888      -1.49808268       2.04232384       0.28129115
I       13.27259614      22.81365999       6.47299286      -0.04688209      -0.16967177       0.03511299      -0.52425783       3.86679651      -1.39540518
I       16.38284498      18.85823441       0.36008760      -0.52002178      -0.04620809      -0.11586803       3.21728667      -0.99492389      -0.67509263
I        9.98691680      20.26872612      12.99065345      -0.08028313      -0.13951288       0.05728306       0.03719240      -1.49798065       0.15220346
I       13.59068161      22.81278305      13.21763061       0.06518489      -0.04042976       0.07301868       2.80044661       1.07640853      -0.54476163
I       12.21800445      15.99266069       0.58192865      -0.01066080       0.40734495      -0.18541199       0.26773447       1.76695886      -2.41046308
I       19.47461853      20.37794295       9.82126345      -0.09793019      -0.19670613       0.09759219       0.74521608      -1.24358503      -0.15546484
I        6.74431218      19.61794374       2.97368877      -0.09912276       0.05954393       0.23377921       1.42491510       0.41951646      -0.31244012
I       12.00719983      19.45055424       3.08738214       0.17314673      -0.07853436       0.03204477      -0.39240168       1.85244709      -1.79360969
I       13.00550897      19.47855819       9.64454616       0.08909569      -0.19155758      -0.19792978       2.12445731       0.52447596      -1.30246958
Cs      15.80352266      16.29111596      16.33126168       0.07187687       0.08336693       0.06187050       0.28626731       0.71190126       3.47822564
N        9.61214948      21.98958032      22.83759479      -0.22315683      -1.38148522       0.78189174      -0.19577073       0.66527190      -0.33308937
C       10.75469359      22.70596825      22.22901611       0.14625424       0.88003567       3.06032636       0.04384372       0.40819313      -0.69316032
H       11.52913659      21.97573656      22.11841399       0.70728529      -0.37091417      -0.49688515      -0.02156365      -0.14926319      -0.13701554
H       11.10243792      23.47552487      23.01022809      -0.45922035      -0.87225384      -0.99860600      -0.13953606       0.13036138       0.11019707
H       10.43903117      23.19008392      21.35795279      -0.46804677       0.71343012      -1.48612516      -0.13303674      -0.13150353       0.08401797
C        8.51079574      22.79611831      23.42647165      -1.28043917      -1.34147019       0.42116012      -0.59561403       0.79720958       0.66026422
H        8.85880231      23.29608211      24.31859015       0.36357976       0.54237608       0.11108917       0.32913116      -0.11282975       0.02874617
H        7.70479968      22.07135121      23.77094147       0.83594774       0.54234457      -0.29268521       0.13870857       0.07293667       0.21676305
H        7.99610615      23.43346334      22.70757854       0.48016485       0.32076529      -0.26202196       0.33917081      -0.25814010      -0.31205388
H        9.98555225      21.30749092      23.60997472      -0.37057791       0.89890635      -0.56907979       0.13242086       0.11263225      -0.09647327
H        9.18865353      21.30077666      22.17378638       0.19704094       0.36201573      -0.21779664      -0.14485211      -0.00241364      -0.01647914
Cs       9.66379696      15.92680927      23.01804769       0.29773515       0.21348127      -0.00411009      -0.35087756       1.12189123      -1.47578706
Cs      16.13313473      23.26569404      16.58965586      -0.09807026       0.03775321      -0.14797661       4.22982837       0.04176281      -1.76772188
Pb       6.67996682      19.82880775      19.55822284       0.17930016      -0.08949802      -0.12410033       0.03025570      -0.72171123       4.68516136
Pb      13.07096383      19.41113158      19.37979049      -0.10517137      -0.00331755       0.40431631       3.89777781      -5.60846877       0.19299812
Pb       6.66149199      19.59691069      13.16327557      -0.00892897      -0.00715729      -0.14828220      -0.71798649       2.18192444      -0.09741008
Pb      12.86906008      19.33622738      12.62076408       0.18802113       0.09508398       0.55518991      -1.43622778       0.38995266      -1.48409593
I        9.92508545      20.48010590      19.58276661       0.12169923      -0.30978002      -0.14861863       0.04787637      -1.16439945      -2.63219355
I       16.41781061      18.45850958      20.24413538      -0.20064703       0.18767372      -0.19920224      -0.01066958       1.49154475       1.74749964
I       12.80519798      16.00074167      19.86585470      -0.08917804       0.22802220      -0.05673126       0.57629122      -1.00808434      -5.24837634
I       14.09638626      22.96671255      19.72299743      -0.07173103      -0.02160926      -0.02699443      -3.56747228       0.42734513       1.38925739
I       16.42498015      18.75236482      13.25728005      -0.28371496       0.04479798      -0.12199036      -5.61520346       0.34853167      -3.22086723
I        9.66345565      19.79238707      25.52934217       0.12625205      -0.10340276       0.10514388       0.49220934       2.80035945      -2.05497153
I       13.13181699      22.40071494      25.68528599      -0.02083336      -0.14372922       0.11877910       0.15049707       1.08968298       0.73987363
I       12.53570585      16.28517175      12.97802754      -0.12460286      -0.10732934       0.09379836       0.28948130      -3.19076332       1.21202055
I       19.14301435      19.73596676      23.41863599      -0.01580453       0.11636437      -0.41875281       1.22663067      -1.31995119      -1.87352367
I        7.24881517      20.04591869      16.29630315      -0.07436739      -0.22561920      -0.07019624      -0.66647894       1.62950715       1.30973736
I       13.41932773      19.59898240      16.44597895       0.05312918      -0.00552773      -0.38025534      -0.73669976       0.88876012      -0.26382224
I       13.23948423      19.87087044      22.46879103       0.14016160      -0.30233350       0.37072402      -0.16815554      -1.72553993       2.15814299
Cs       9.74647241      22.35128986       3.32499995      -0.09041452       0.20964823      -0.26146435      -0.03479741      -2.03999715       0.50035664
Cs       3.57698229       3.36656404      10.04510534      -0.15618189      -0.18653072       0.01614067       0.26428598      -0.99571058      -1.76768360
Cs       3.37745819      23.21967386       9.31152065      -0.02658392      -0.03532787       0.03143609       0.29898405      -0.67202552       3.97065524
N        9.83287871       3.44627446       2.48713205      -0.52516365       1.12310768      -0.07368052       0.39338197      -0.54349975      -0.15594467
C        9.68352417       2.16804182       3.26307719       2.00805385      -1.73193124      -1.63452957      -0.16987517      -0.07062172       1.27456645
H       10.67830258       1.87292838       3.64427873      -0.21604507       0.43641287       0.19302724       0.04034017      -0.13244048      -0.13008512
H        9.41832594       1.26311970       2.60893748      -0.01030657       1.36094669       0.37120836      -0.20787900      -0.09000326      -0.10721164
H        8.98480932       2.22663310       4.04961761      -1.02961895       0.59858236       1.00310321       0.02873539       0.00684381      -0.32342758
C        9.95863596       4.74040427       3.25495438      -0.40910799       0.91969927       1.79648326      -0.08192586       0.40442185      -0.35127968
H        9.09093788       4.92910236       3.97664124       0.87763348      -0.72051265      -0.83341548       0.02567037       0.11112133      -0.02838537
H        9.95592863       5.61719671       2.57372664       0.08633528      -0.58067112      -0.09760676       0.14312693       0.36306962       0.04477516
H       10.91873854       4.77270750       3.83646975      -0.66290049      -0.32126182      -0.41983274       0.34024286      -0.11949711       0.04577156
H        8.95365303       3.56814854       1.94784843       0.39661829      -0.12909020      -0.39625164       0.03059356      -0.06424036       0.02096953
H       10.66939483       3.52972600       1.85091228      -0.59951786      -0.95801993      -0.02976436       0.36888868      -0.17021825      -0.19931758
Pb       0.26110908       0.00428775       6.03446395       0.01028451       0.18277670       0.26880872      -1.01963213      -1.63412479       2.28937664
Pb       6.36491047       0.29548121       6.11152789      -0.12280882      -0.03588289       0.04445428       2.92297862       2.33510947      -3.45299099
Pb       0.10384499       0.53415837      -0.30463441      -0.03480211      -0.13064620       0.03690734       2.81618677       1.69332359       6.09625206
Pb       6.35923707       0.43496807      -0.20704436      -0.00199805      -0.10925986       0.04211047       2.57572781      -2.95058332      -0.98785312
I        3.26651475       1.23034520       6.86457776      -0.03441746      -0.42629408      -0.11094172       0.15114262       0.00226058       3.41152483
I        9.73348819      24.93727411       5.92795223      -0.14734734       0.22392004       0.06075357       0.37910309       0.79373152      -0.27248284
I        5.25343396      23.18068698       5.76253912       0.14626572      -0.04892149       0.13953747      -1.00665178      -0.60192410       2.21026641
I        6.74644818       3.49170544       6.32044905       0.28791527      -0.38393498      -0.02312162       2.72556309      -2.95836681      -1.81248362
I        9.21320798      25.17802006       0.59052615       0.19454905      -0.07965375       0.10145448      -1.31754135      -2.33744906      -0.15231375
I        3.68780184       0.61727181      12.65335488      -0.21926024      -0.04110962       0.06027938       0.59525753       0.51732763       0.02364022
I        7.42300559       3.36691924      12.98088092       0.13188633      -0.41841930       0.07394874       0.74232944       1.80620054      -4.52718917
I        5.23446280      23.09966006      -0.11005071       0.02269814       0.01960224      -0.03053637       0.05122268      -0.82955478      -0.85340843
I       12.63817033       0.19527278       9.68410389      -0.12519375      -0.33832385       0.17590921      -2.19028158      -0.45716979       0.88339977
I        0.44528360      26.57231703       3.04518817       0.03351928      -0.06623024      -0.11085240       0.98199002       0.69311822       0.74853247
I        5.78371901       0.86663946       3.05884307       0.11488079      -0.23319040       0.04139872       2.38530939      -0.78058999      -1.54138807