360
Lattice="25.27627887073328 -0.007377895154057421 -0.04506791448363093 0.004710911234248622 25.44411462809562 -0.039896711418697016 -0.037687305201036435 -0.11103541864793122 25.57763395248724" Properties=species:S:1:pos:R:3:forces:R:3:momenta:R:3 energy=-1112.8023681640625 stress="1.0665838999557309e-05 -0.0001765431952662766 1.9137427443638444e-05 -0.0001765431952662766 -0.00013225320435594767 -0.0002211625542258844 1.9137427443638444e-05 -0.0002211625542258844 -1.733193130348809e-05" pbc="T T T"
Cs       9.47179685       8.85425047       3.34016433      -0.05212042       0.27639709       0.19673003       1.42252814      -0.87639270      -4.65251915
Cs       2.88662353      16.29866187       8.99381688      -0.00040272       0.00982176       0.01044831      -0.10159391       0.34099624       0.94797768
Cs       3.30987282      10.45015831       9.82214708      -0.16828309      -0.28410450      -0.20700460       2.17058282       0.34840956       1.75329343
Cs       9.39841008      15.57887091       3.16468047      -0.15279116      -0.05116525       0.02350232      -1.12979530      -1.87789068      -0.03285072
Pb       0.28179285      12.74751299       5.87375709      -0.33793929      -0.08509191       0.04606448       4.52238372      -2.19338531       0.18693617
Pb       6.43296772      12.53894559       6.09242135      -0.40291297      -0.00187762      -0.20962572      -0.79483988      -4.32291967       5.75893912
Pb      -0.29388090      12.95644264      -0.16249225       0.16026150       0.24004449      -0.45197729       1.29796928      -2.86093988       3.45686320
Pb       6.38771119      12.72907105      -0.24986133      -0.04622604       0.07309988      -0.40830405      -0.50610184       0.43199261       1.50540069
I        3.12591386      13.61814449       6.27629495       0.24798879      -0.03600767      -0.00559032       0.35327099       0.90092812      -0.14458259
I        9.42788301      12.45981550       5.81258065       0.12491428      -0.17432873      -0.07068492       0.61316351       1.16175840      -0.07587654
I        5.25798959       9.54498813       5.80912081       0.25881308      -0.07335394       0.12166460      -0.85722767      -0.51473375       0.37564584
I        6.58051803      15.71489577       6.76949952       0.08274736      -0.35015665       0.05981534      -1.16623629       1.06885688       0.15042364
I        9.40738326      12.29886158       0.51777187      -0.05740263      -0.08944215      -0.00355050       1.39542013       1.87140595       0.57961416
I        3.04288796      13.59763979      11.61164410      -0.00055419       0.12722589       0.16116337      -1.95037214      -1.36165044      -0.76473154
I        7.57782633      15.91638248      12.76381935      -0.23554269      -0.19317848      -0.10639362      -0.78167905       0.55011473      -0.77394955
I        5.94153108       9.48242406       0.61991169      -0.05230776       0.03228048      -0.06715027      -2.07949560      -0.93066343      -2.24933727
I       12.08484930      13.26182349       9.65513156       0.02429391      -0.12964309      -0.12095612      -3.47646408      -1.16649086       0.27427966
I        0.42851637      12.38367636       2.64816638       0.06991059       0.10013958       0.51068150       1.92812516       2.32571009      -2.32500004
I        5.73662748      12.99810637       2.60506371      -0.10127394       0.17920353       0.50733520      -0.48122010       0.83429658       1.67584420
I        6.47069896      12.17672632       9.05983684       0.11333081       0.06025779       0.36864960      -2.61444032      -0.62014574      -0.50421755
Cs       9.24110323       9.53496827      16.08006558      -0.07291578       0.00715479       0.03472255      -1.42991684      -1.63110830       0.68711378
Cs       3.47789297      16.55376114      21.99554258       0.06046741       0.04174291       0.15240065       1.77912859       2.74737300      -1.76866886
Cs       3.08162040       9.85134157      22.70144992       0.14421510       0.03521538      -0.18538833       2.90510272       1.92580199      -4.00144123
Cs       9.41895404      15.04042212      15.95571739       0.01663450       0.08640826      -0.00769061      -1.42000081      -2.74948171       0.83454476
Pb       0.27048725      13.00718878      18.68355963      -0.07328858      -0.11220514       0.36099904       2.10404398       0.41237182      -0.96111525
Pb       6.61504190      12.79557714      19.05236434      -0.34829334      -0.10034575       0.13406083       4.27338350       3.40086329      -0.00389612
Pb      -0.08770180      12.68457949      12.29878791      -0.02292448       0.08975630       0.10840543       1.27189360      -3.35845322      -1.72639376
Pb       6.00718984      13.11146367      12.57318442       0.26062502      -0.04525210       0.13400874       1.50812323      -4.02216241      -4.53572812
I        3.45468897      13.66429478      19.67117447      -0.23535639      -0.07292213      -0.18179201       2.04810346      -2.37693575       0.12166660
I        9.59576181      12.00484887      19.31800851       0.11686049      -0.06348066      -0.18959880       1.38986756      -0.16507630       0.06201788
I        6.00449476       9.77713250      18.34270750      -0.12101620      -0.02988566      -0.08167732      -3.29410962       0.44042090      -0.39423929
I        6.81147105      16.50870644      19.16862583      -0.26157878      -0.38272702      -0.29967888      -0.31346417      -2.44293520       3.80652090
I        9.05231970      11.72384307      12.72196440       0.08560149       0.17824634       0.14724276       0.31755895       1.43631474      -0.52385767
I        2.98208398      13.41460333      24.71755462       0.01860164      -0.02907959       0.00775805      -2.29285843       0.46852459       0.77233457
I        6.60167055      15.90051882      24.78910711      -0.07217724       0.05363585       0.09573214       2.37979949       3.01491728       2.28013668
I        5.04586080       9.81966107      13.23019421       0.04683774       0.05465560      -0.03467482      -2.44626535       1.18219412      -0.14892526
I       12.82840857      12.80033706      22.55949839       0.00729134       0.09533913      -0.17694205      -0.29228145       1.11066519       0.50630957
I        0.93089984      12.65534715      15.61463491      -0.07200682       0.06442277      -0.00302855       1.19716626       0.59497346       0.84667752
I        5.75859228      13.10618231      15.74663167       0.07503921       0.15801374      -0.04304849      -0.54554635       1.00562778       1.84619886
I        6.57844823      11.55599796      22.04575060      -0.04682477       0.07219413       0.08565414       0.14460161       0.97056913      -2.17514037
Cs      15.45208238      15.79053297       3.61687955       0.02633903      -0.03121114       0.00767334       0.23591693      -0.01510589      -0.46588518
Cs       9.08819064      22.00298691       9.56963575      -0.02336843       0.16382085      -0.20193410      -2.68051744      -1.67229959      -1.19627404
Cs       9.56130649      16.01610508       9.22132565      -0.09526470       0.02343601       0.19351105      -1.15226829      -3.85826511       0.72016702
N       15.78557981      22.92562555       3.78567889       0.11603508      -0.75838635       1.04022096       0.73576589       0.29438248       0.52980109
C       15.71683124      23.83137135       2.58127242      -0.48357829       0.45121023       2.39043672      -0.10085925      -0.14831973       0.30465536
H       16.41059427      23.67080439       1.80255716       1.04383181      -0.83312048      -0.67949705      -0.12213161      -0.19237352      -0.09008246
H       15.84497713      24.82995010       2.97488243       0.23359316       0.59771243       0.10959589      -0.07939652       0.16672470      -0.16109645
H       14.71028110      23.78358076       2.26370574      -1.23868045      -0.28328578      -0.76936181      -0.02239667       0.19250458       0.08326143
C       15.79235579      21.44802836       3.40132589      -0.54230213       1.08789090      -2.70762239      -0.70613877      -0.28474702      -0.35931550
H       16.07110092      20.78493761       4.19993084       0.11841096      -0.15052846       0.65238081       0.22882823       0.16063392       0.24949175
H       16.54298584      21.32000261       2.49038634      -1.42882941       0.21609873       1.66419105       0.12257347      -0.06501142      -0.04333413
H       14.72640479      21.28909184       3.06134141       1.09078234      -0.33257428       0.11780183      -0.09962042       0.34431539      -0.21927698
H       14.93307293      23.13686723       4.47983921       1.45502735      -0.51394582      -1.23419627       0.06709892      -0.29920709       0.13377996
H       16.68465916      23.02708320       4.36394051      -0.69437151       0.43547273      -0.53455134       0.01758348       0.26706494      -0.08728269
Pb       6.34287182      18.60465948       6.36848296      -0.39845977       0.53733660      -0.26899695      -1.87878969      -2.17367970      -0.37473848
Pb      12.43725633      19.18160918       6.37678808       0.15667705       0.25262311      -0.23993722      -0.13745953      -0.39674591      -3.09399277
Pb       6.51818095      19.41502158       0.25222391      -0.30739807      -0.00488011      -0.32372845       0.06331851      -1.55231176       1.69276123
Pb      12.37212499      19.20895498       0.42489305       0.12820853      -0.03128468       0.15065347      -1.20631711      -0.85401506      -0.79032153
I        9.26663391      19.15569662       6.58273017       0.23679337       0.19341022       0.38146319      -0.35864784      -1.32135158       0.30759030
I       15.71987899      18.49670712       6.43883517       0.05638697      -0.15581579      -0.11689875      -3.60094865       1.63545343       1.58940626
I       11.96017216      15.80953273       6.32073139       0.02805554       0.58493816      -0.25311796      -0.84933420      -0.21970383       1.67444269
I       12.99711986      22.46913374       6.22675221       0.08135003       0.01271899       0.08332582       1.71132672       1.73730222      -2.98689863
I       15.56333391      18.38362818       0.72459787      -0.01580834      -0.04763166       0.04354057      -1.52624735       0.84122670      -0.05322611
I        9.26963670      19.50577751      12.20461394       0.18107665       0.17198864      -0.04427619       3.09057941      -3.04966621       2.54043476
I       13.10778240      22.35947468      12.90430023      -0.23067392       0.24346378      -0.17232087       1.88279633       3.38581296       1.22914359
I       11.82431758      16.03529722       0.44230307       0.02552620       0.11750720      -0.10316436       0.25827937      -0.06995226      -0.97820244
I       19.55305560      18.92819149       9.29090680      -0.05339077       0.07337813       0.01230828       3.38182330      -3.14264595      -0.53438241
I        6.58092892      18.47374310       3.05972832       0.06743244      -0.10600271       0.12005287      -2.02661011      -2.00934394       1.78466127
I       11.15401745      19.00636190       3.42032805       0.23683300       0.08819988      -0.22080716       3.18871156       0.79845949      -2.50434734
I       12.88613420      18.33668404       9.32348828      -0.14564680       0.02975799       0.19788440       0.59175399      -1.54172089      -0.80010380
Cs      15.17046973      15.89571189      15.73089616      -0.00601930      -0.02060767       0.10785422       0.72450777      -0.58609706       0.18097407
Cs      10.37193146      22.76235238      22.52225736      -0.29060753      -0.08996312      -0.05683569      -3.80451703      -3.59403353      -0.59906627
N        9.04693668      16.50074614      21.51411744      -0.59056084      -0.67641721       1.35677495      -0.62093958       0.36988055       0.14801311
C        9.37017495      15.15614669      22.12091439      -0.19966324       0.11975699      -0.14900371      -0.02577191      -0.37667303       1.08456027
H        8.46582367      14.79594380      22.58181291      -0.61558848      -0.17425252       0.35776429       0.05237936       0.23623008       0.01971456
H       10.11290505      15.24770755      22.91136688       0.28013394       0.30675068      -0.02235371       0.02915796       0.02980277       0.19985764
H        9.68526963      14.40185739      21.39857130       0.13026410       0.22319356      -0.37392653      -0.01518206       0.21433292      -0.19483562
C        9.22048364      17.63179917      22.44634485       1.85965394      -1.79267080       1.23198200       0.06571668       0.34358992       0.19218562
H       10.05752846      17.35804374      23.15889088      -0.68679652       0.27748112      -0.73588206       0.18653748       0.15763427       0.10257062
H        8.34713409      17.73682734      23.03142858      -1.22819626       0.34790553       0.56695426      -0.08464725       0.12173445       0.03437468
H        9.51344157      18.46217382      21.87989709       0.18066988       1.63373899      -0.71686062       0.11669584      -0.18653480      -0.11523273
H        8.05240442      16.53256220      21.17864726      -0.12286624      -0.32819831      -0.06300841       0.09570942      -0.33061731       0.24001799
H        9.53492619      16.67820619      20.66592245       1.20906744      -0.00129903      -1.18163354      -0.26534257      -0.01806162      -0.04269342
Cs      15.01843213      21.98682837      16.29338470       0.19940131       0.01479855      -0.00663490       1.53550154      -0.90886781      -0.17145255
Pb       6.41995847      19.49361768      18.94124447      -0.12762730       0.24037285       0.01969133      -2.00009199      -3.03900704      -3.29874680
Pb      12.51172511      19.28826156      19.78199448      -0.27264386       0.01680246      -0.54427067       0.91933845       3.56065600      -3.70990987
Pb       6.17339863      18.88340219      12.34541677      -0.07452088       0.01116259       0.40312934      -2.99931883       0.16586866       4.73813305
Pb      12.43285872      19.06105061      12.36159021       0.11951414       0.16785112       0.34139835      -1.03452691       1.35785177       0.03335531
I        9.27595331      20.56956920      19.20517287       0.10223900      -0.07142914       0.06528731       2.62945726      -0.74075602      -2.41120896
I       15.35155667      18.46160648      18.91766264       0.17391875       0.02530929      -0.09842362       0.53093478       0.49649103       1.50375160
I       12.11628215      16.16089442      18.61655108      -0.16699103      -0.12005408       0.05415332       1.10397437      -0.68205518      -0.39515630
I       12.88830192      22.42343373      19.31814304       0.12631020      -0.08571599       0.23014097      -1.81956865       0.33410447       1.67874825
I       15.64020280      18.66130015      13.19732195       0.20871942      -0.11514345      -0.07663348       0.54195084       0.81866263       0.36788052
I        9.50003799      20.15233648      25.45799392      -0.25699817       0.15562998      -0.05878763      -1.19529327       0.36808399      -2.75218310
I       13.01011215      22.39408714      25.24980789       0.06023032      -0.04231571       0.04606910       1.15319283       0.32929418      -0.37412626
I       11.86874712      16.05313654      12.93841491      -0.00192581      -0.24519917       0.11950193       0.74758028       0.28010576      -1.03391407
I       17.83074109      19.29955989      22.25072744      -0.00425847      -0.05325455      -0.04322275      -0.54338344      -1.92159752      -0.19192057
I        6.62307500      19.51810360      15.79677883      -0.10482910      -0.11050228      -0.13045347      -0.64265854      -1.46483920       1.03736656
I       12.40494018      19.58407138      15.56601658      -0.25654273      -0.19508715       0.15904466       1.61345477      -1.89748643      -0.42267311
I       12.67867339      18.98367144      22.72120040       0.10224677       0.16339263       0.17993683       2.58646597      -0.11618016       0.44593902
Cs       8.87216502      22.57232347       3.11535474       0.11243723       0.05084392       0.07943814      -4.09316211       0.27292572      -1.45449776
Cs       3.27310827       3.76294471       9.52291097       0.06448939      -0.09759655       0.01777434       2.72463474       2.33288908      -2.48933400
Cs       2.91259037      22.00832340       9.30002570      -0.01696651       0.07752606       0.06988886       2.61972615       0.52783785       2.14682292
Cs       9.22333890       3.29713594       2.94560018      -0.14322666      -0.14496922      -0.03168081      -1.94554444      -2.43432114       2.90084076
Pb       0.08509982       0.10737278       5.83077929      -0.08539358       0.09737622       0.36871434       1.81062236      -1.19372690       1.04803662
Pb       6.21528743      -0.15898373       6.71351455       0.02688798      -0.07397946      -0.28605070       2.09614082       1.46637120      -0.65143201
Pb      -0.03916994       0.25282855      -0.23923460       0.11783434      -0.01150381       0.09766110       1.08440935       0.08798730       2.21481705
Pb       6.09265872       0.36559352      -0.11632226       0.23512781      -0.09130428       0.01963874      -0.70705653      -0.74969442       2.23377163
I        2.96195094       1.00881882       6.65679910       0.12537217      -0.16379859       0.06102941       0.75918179       0.49003730       1.42723366
I        9.38686095      24.72894910       6.59018933      -0.02690779       0.07920248      -0.03248297       3.07102432      -3.76392494       1.95068581
I        6.07833984      22.10146831       5.88934114      -0.11268349       0.12053963      -0.00745685       1.70248219       0.25893278       2.38009916
I        6.35053346       3.08830678       6.74726349      -0.01324758       0.09857599      -0.04822849      -2.57313433      -2.48318877       2.84278377
I        9.41801469      24.99602732       0.03025395      -0.01500596       0.15268318       0.03431214      -0.59361197       0.47537399      -0.63258521
I        2.71812008       0.67941174      12.14507006       0.57210838       0.20093939      -0.09844591      -0.90763816      -0.88618741       4.86341282
I        6.13185943       3.34331312      12.37681275      -0.02831095       0.03134881      -0.09493772       1.37001962      -2.14726609      -1.06108186
I        5.67760492      22.55307863       1.07171662       0.04683771      -0.17413714      -0.33409455       1.30435533       0.58390466       1.16090122
I       12.57635562       0.83089674       9.92147233      -0.02065734      -0.04886708      -0.13390177      -1.36485406       0.80381656       0.19283843
I        0.72467116      25.38282382       2.87215444       0.17108096      -0.05727125       0.01323353       1.21436794       0.88636784      -0.45695602
I        6.02434362       0.48290955       3.12884308       0.04130542       0.18956086       0.00641818       2.07494608       0.38080423      -2.06331649
I        5.81606391      24.39474311       9.59484607       0.11092465       0.08504749      -0.05141198       0.05143862       5.31391139       0.65643895
Cs       9.40787827      22.11720698      15.54352940       0.04922906      -0.04940181       0.01319069      -2.72867953      -1.05724114      -0.11543071
Cs       3.90030942       3.73441641      21.68008884      -0.12283474      -0.00861193       0.16050363       0.98408140      -0.93914697       0.39760699
Cs       3.05679275      23.26531324      21.83910393       0.07888377       0.02119285       0.16106086       0.79925443       4.86124778      -0.23702468
Cs       8.90749013       3.09178258      15.48732760      -0.07176919       0.06622405       0.05858208       1.34564481       0.62230512      -1.32156894
Pb      -0.14361371       0.10578735      18.94734504       0.08585620      -0.00801087       0.17688363       0.83496415       2.40738679      -2.04514406
Pb       6.19967956       0.01014549      19.06149356       0.12248789       0.26269655      -0.10051289      -2.00955807      -0.42818959      -0.82853814
Pb      -0.12139304       0.29313042      12.75137270      -0.38181925      -0.39868685       0.00813951      -2.47972818      -1.69318829       1.96087390
Pb       6.01526111      -0.06634074      12.74470307      -0.28892219       0.16118351       0.12486453       2.09353955       1.26243431       1.43180493
I        2.80771655       1.03079964      19.47512900       0.27421043      -0.12150400      -0.01633249       2.25967705       1.87347861       2.50894009
I        9.35422179      24.95196511      18.25109755      -0.33882115      -0.03191361       0.02909123      -2.03419406      -3.33657032      -3.16872274
I        5.00733805      22.67225357      18.61038646       0.20620248       0.05219245       0.10513593      -1.06965496       2.63487284      -1.13663026
I        6.85944518       3.44816964      19.30830711       0.00380778      -0.14938259       0.07044612      -0.43899420       1.53200428       1.32858603
I        9.14183196      25.33495844      13.31204233      -0.03143677      -0.17171034       0.04691118      -1.18433606      -0.95173048      -1.78677393
I        3.31128368       1.07816944      24.28940834      -0.14714834      -0.13958616       0.14499623       4.61685195       0.12641378      -0.75214620
I        7.04016847       3.28303451      24.77308790      -0.00534795      -0.07651621       0.15298065      -1.08298386      -0.09305318       1.83890139
I        5.51349874      22.02403632      12.58451150       0.03057417       0.16261365       0.17601427       0.15905059       1.49322791      -1.23715799
I       12.37703509       0.54874509      22.35797883      -0.03793240       0.04209112      -0.21920510      -0.17805310      -2.02141860       0.80424128
I        0.48900562      25.50300623      15.89108527       0.04225819      -0.13917848       0.09799291      -0.60426649       1.07689637      -0.74711353
I        5.49036108       1.19065410      15.75175347       0.06906261      -0.32713854       0.07853660      -1.04717292       4.98877219       0.95612468
I        6.80324230      25.13840369      22.11339827      -0.02656652      -0.05029169      -0.08193853       3.08485383       0.96603816       1.16038241
Cs      15.39193383       3.68985953       3.10966907       0.07630307      -0.05107354      -0.06036774      -0.75880894       2.04545184      -0.95435467
Cs       9.48648071       9.83625681       9.49009594       0.08871272      -0.08848472       0.00897231       0.16964103      -0.90504272      -0.86297053
N        8.29009681       3.15968150       9.60388089       0.83927805       0.80126451      -1.05071798      -0.66661641      -0.63671050       0.25001865
C        9.37665375       4.21293723       9.41692774      -0.21594869      -1.71153026       0.75965736       0.59425809       0.30011446      -0.79643011
H        9.91750561       4.15845784       8.47702903      -0.03582841      -0.12979801      -0.06984541       0.12638617      -0.01305811      -0.03735396
H        9.98131833       4.21253729      10.34081183       0.30302238      -0.47983512      -0.46309910       0.15210401      -0.20187981      -0.06155271
H        8.76062276       5.02859674       9.58302889      -0.63293275       2.78818824      -0.56723825      -0.14086773      -0.05318729      -0.18082225
C        8.75377759       1.88696495      10.03693233       1.43616365      -0.10158909       1.77189703      -0.05405524      -0.79704249      -0.24174325
H        7.89077736       1.36414820      10.36412520      -0.78006179      -1.16603225      -0.03690824      -0.12562351       0.14458303      -0.07351272
H        9.32863347       2.07251178      10.96826921       0.13852493      -0.24934021      -0.37831134      -0.10177475       0.00907171      -0.03285592
H        9.38161159       1.43030984       9.28145296       0.02469493      -0.32697373      -0.22196584      -0.21758278      -0.49963416      -0.16264967
H        7.66176716       2.95116468       8.79204577       0.10926997       0.76806905      -0.49292801       0.18217127       0.04124606       0.11480727
H        7.72298969       3.59863862      10.32576337      -0.98910347      -0.19402288       0.77818832      -0.19889744       0.03219018      -0.29331808
Cs      15.92787772       9.56011755       3.26263946       0.03913356       0.12024077      -0.08477646      -0.03921198      -1.48995579      -1.39302293
Pb       6.01985546       6.38445711       6.33957900       0.04235851       0.06346847      -0.19311926       5.85700066      -3.57280899       2.36558946
Pb      12.75042175       6.46861942       6.73834508      -0.27113431       0.24556469      -0.04988017      -0.64134795       1.16065412      -2.70475214
Pb       6.02650422       6.40738236      -0.19429210       0.06988035       0.06474592       0.25757209       1.85288776       0.00878708      -0.04526927
Pb      12.48347173       6.34539785       0.09020531       0.53888256       0.29728548       0.03452745       2.11651505      -0.65854259      -2.34423770
I        9.06197588       7.24558478       6.80764162       0.15726804      -0.05708838      -0.28464506       0.70988303       0.89621984       1.81674785
I       15.65905818       6.36131373       5.94774698       0.19030069      -0.17428723       0.11734167      -2.43688328      -0.31079600      -4.04687347
I       12.12707410       3.62711328       5.36427944      -0.13175320       0.09580874       0.12482023      -3.01007478       1.22365205      -0.02704383
I       13.00121139       9.79426744       6.66982620       0.02984765      -0.35995584       0.16873689       2.68782327      -0.10283512      -1.30480511
I       15.89825266       6.44231332       0.06213026       0.12046267      -0.17622134       0.05211691      -1.65189843       2.19897993      -1.10028517
I        9.31404147       7.33203595      13.04082316      -0.29404257      -0.11862681      -0.11173660       0.69880111      -2.97622779      -0.95654064
I       13.11463429       9.51408848      12.82415009       0.08906155       0.25053932       0.02522957       3.62408884       3.17084900      -2.51292583
I       12.12386013       3.33805017       0.36938840      -0.14144425       0.15919825       0.11831497       0.27700426      -1.35758846      -0.04261615
I       17.99944887       6.05153419       9.46258249       0.22761764       0.01184961      -0.05983818      -2.05804745       1.17401159       0.47882654
I        6.02794734       5.68140430       3.11299477       0.23531044      -0.03770667       0.02459210       1.48112358      -4.77816921       1.70541508
I       13.08815848       7.35672596       3.20834576      -0.37595851      -0.23269591       0.04284167      -1.09010721      -1.17215869       0.38961068
I       12.29177873       6.87495612      10.09856861       0.19783227      -0.12827875      -0.44071569      -2.07187885       1.64227632       0.15544071
Cs      15.89717815       3.25331662      16.03092822       0.00158692       0.00136681       0.10105106      -0.88699201      -1.07255474       2.38537172
Cs      10.70123223       9.44513376      22.41266327      -0.18017447       0.01947526       0.11105430      -0.54563660      -2.18139400      -1.63620219
Cs       9.61146752       3.09330901      22.09305269      -0.11369925       0.02112195      -0.06654870      -0.95010501      -1.83222966      -0.93445416
Cs      14.76524353       9.55592146      16.42121313       0.41810825      -0.26785483      -0.13638834      -0.16890147       0.06555549       2.10415436
Pb       6.07284297       6.51259756      18.81389195       0.07986413       0.07900077       0.23434614      -3.73657726      -1.04104284      -0.23792137
Pb      12.25044558       6.08972055      19.34334175       0.16910640      -0.00415891      -0.02467797       0.66108253       2.13665482       0.43978045
Pb       5.84006680       6.98309945      12.54635941       0.11264065      -0.28432965       0.13439830       3.44750855       3.79469564       3.58370459
Pb      12.49555796       6.27798280      13.22965900      -0.08298174       0.18961839      -0.09399140      -2.65933578       2.08718356       1.97170376
I        9.26907692       6.99215397      19.73815197      -0.05290805       0.06937498      -0.00209135      -1.70840046       1.94135856       1.14987302
I       15.60473467       5.95321930      18.91893309       0.10938096      -0.12249596      -0.06501311       1.19875792      -0.75200869      -1.93802424
I       11.30726431       3.06681675      18.40990103       0.13318004       0.18701917       0.20025762      -1.59853453       0.07659815       0.40191010
I       13.28599241       9.22087534      19.73597570      -0.08967446       0.10525059       0.05521228       3.61712916       0.34098927       0.43728186
I       15.71338774       5.95900284      13.19089388      -0.16695010      -0.08789854       0.02832597      -0.15364185      -1.89721640      -1.36342043
I        9.64276743       7.17414300      25.75804355      -0.43696304      -0.05983613      -0.22721474       0.89337223      -2.31249276       1.84543451
I       13.58380370       9.79723064      25.19203923      -0.02180629      -0.12728895      -0.04389730      -1.52813200      -0.61798200       2.42646846
I       12.67694184       3.30672160      14.16815682      -0.23629514      -0.24728193      -0.23520748       0.90226926       0.37364733      -0.60965342
I       18.29475459       6.71793848      22.21895029       0.05372854       0.10889215       0.11589939      -2.25664843       2.35863794      -2.08023887
I        6.15468225       5.87211684      15.90794335       0.05737653       0.10703800      -0.35884291       0.46974206      -1.84576973      -3.58257506
I       11.81407551       6.74104646      16.33152759       0.07096846       0.16293253      -0.09824238      -3.84663301      -1.40758868       1.91232736