600
Lattice="26.346106263640255 0.015635666474548403 -0.037942502762008834 -0.035293887111549946 25.872549236703936 0.13148806318944015 -0.001540824184707642 0.05995242846580397 25.92451152712003" Properties=species:S:1:pos:R:3:forces:R:3:momenta:R:3 energy=-2375.63818359375 stress="0.0011237065773457289 -6.46451735519804e-05 -5.302924364514183e-06 -6.46451735519804e-05 0.0004127899301238358 -0.0005016201757825912 -5.302924364514183e-06 -0.0005016201757825912 6.982120976317675e-05" pbc="T T T"
Cs       8.93130880       9.40177161       3.38913728       0.05906658       0.04480018      -0.15743730       0.28178604      -0.86460407      -1.32033736
Cs       3.36387564      15.90845535       9.87048443      -0.05944797       0.01998227       0.11669455      -2.18443341      -0.01081982       2.49618278
N        4.47271134       9.11550599      10.34100653      -0.22000089      -0.41269562      -0.28176871       0.26166949       0.19789516       0.23338761
C        4.65733424      10.12355762       9.23833110      -0.38662986      -0.10913520      -0.70638638      -1.10553185      -0.73847447       0.36863779
H        5.77524003      10.22113603       9.05216088      -1.24690067      -0.19957482      -0.12715610       0.15003279      -0.18269684      -0.00481032
H        4.24713405      11.11764960       9.54407587       0.28842020      -0.64131915       0.24094249       0.15003211      -0.28561612      -0.06091494
H        4.01349689       9.80606992       8.35608654       1.01152093       0.07249921       0.79713429       0.17571361      -0.12875811       0.03262247
C        3.06581784       9.04145384      10.89606325       0.67943005      -0.85079630       0.46392143      -0.24109676       0.35889136       0.91843818
H        2.37148360       8.51211345      10.26176676      -0.06159191      -0.10618961      -0.86364935      -0.30426505       0.22221531      -0.14919764
H        2.66845108      10.02536857      11.12631751       0.22178436       0.34046142       0.15037405       0.14375305       0.05224317       0.23908296
H        3.17074871       8.39516183      11.77959147      -0.24711436       0.37586201       0.21276442       0.00193226       0.02863646      -0.06319921
H        5.06945221       9.43191395      11.14732531       0.16093394      -0.25999332      -0.12411150      -0.34216441      -0.10775264      -0.30899857
H        4.81064819       8.11418331      10.07739586      -0.33536094       1.65339710       0.28468239      -0.22842106       0.14252223      -0.00133210
Cs       9.47469112      15.81883485       2.45113096      -0.17359405       0.04184146       0.21422194       0.35765492       1.60504863      -0.76728301
Pb      -0.06150643      13.14250421       6.99112406       0.04053399      -0.05623139      -0.25079589       0.22886841       0.69181453       3.70196289
Pb       6.59937045      12.78367795       6.54596116      -0.04226445      -0.02770873      -0.10612206       0.77252178      -0.76324044      -1.13765755
Pb      -0.25244121      12.66346893       0.55092367      -0.11714327       0.22204513      -0.05826285       0.45271760      -1.83463604      -5.23276395
Pb       5.86580237      13.04147307       0.03317638       0.24939215      -0.16503053       0.37020158      -1.16110631       1.44777471       0.17026786
I        3.27601526      13.77156334       6.68505516      -0.12257462      -0.12801140      -0.01714631      -1.09837741      -0.54150793       0.42526415
I        9.70538102      12.09724556       6.13321633       0.02546712      -0.02218065      -0.00940039      -0.55697728       0.23351253      -0.59337327
I        5.98956393       9.70108546       5.72469433      -0.05600555      -0.15989736      -0.08846180       0.08341283      -3.00893491       2.03088558
I        7.29360580      15.78966473       6.68743239      -0.00741183       0.11538235       0.10723255       1.61511850       2.18255738      -1.91643551
I        9.83738533      12.46854602       0.50693918      -0.43463293      -0.12825610       0.13486960       1.23506786       0.42880449      -0.97869757
I        3.04703409      13.20014939      13.65556576      -0.04888752       0.03732160      -0.20749649       1.96257141       0.89258737      -0.43085924
I        7.40448448      15.77619783      12.96580337      -0.15853996       0.12728438       0.09089599       1.13933162      -0.72559527      -1.40275975
I        5.88086780       9.66383087       0.68625272      -0.06002102      -0.05806978       0.05068812       0.54557713       0.43410252      -3.45022910
I       13.09142120      12.78957432       9.93788696      -0.10165996       0.10219142      -0.33122389      -1.48357015      -4.26836395       2.00757268
I       -0.14416554      12.81136656       3.81034396       0.11612077      -0.03311592      -0.43411590       1.47520898       0.29593363       0.35363960
I        6.28289947      13.61883358       3.35508444       0.00328309      -0.07854379      -0.08031444       0.33064825       2.42769402      -1.79979280
I        7.25523844      12.43120323       9.77761102       0.18617209       0.20508347       0.12180180       2.10873221      -2.65753306      -0.26580755
Cs       9.80911363       9.28986353      16.30861890      -0.18585101      -0.00107300       0.11969544       0.97228578      -5.61690475       0.34369814
Cs       3.93509978      16.38089376      22.77155945      -0.13638779      -0.04907647       0.03047561      -0.77799952      -2.34325827      -3.21643755
N        3.25633074       9.17500166      23.55828163       0.14678216       0.33311739      -0.60501095       0.71508062      -0.19043348       0.19602235
C        2.46402987      10.46029379      23.36445388       1.83798941       0.15163951      -0.74067140       0.90724458      -0.03274985       0.33514662
H        3.04881285      11.13349162      22.69083417      -0.12176741      -0.45739477       0.48955220      -0.04466733      -0.04237993       0.05653300
H        2.19952717      11.01090065      24.24300942      -0.04587498       0.03869311       0.96819427      -0.01394863      -0.09278231      -0.09955443
H        1.60218495      10.18505596      22.81498961      -1.20351051      -0.29373777      -0.55256905      -0.19124298      -0.04713457      -0.10490934
C        3.50832527       8.63637634      22.16939664       0.15664757      -0.82025584      -0.22022718      -0.76469269       1.29504124       0.29782970
H        2.57479561       8.46370342      21.61774608      -0.16634090      -0.04682416       0.40224370      -0.26042154       0.23468367       0.05556047
H        4.12681053       7.69707669      22.13189202      -0.37620804       0.75560372       0.39522455       0.06670639      -0.26858931      -0.07352283
H        4.02046236       9.43553732      21.62760603       0.29030785      -0.01572515      -0.03558723       0.09966367       0.01998418       0.36079721
H        2.74173295       8.53881170      24.20278413       0.14875177       0.01270485      -0.37268275       0.20337126      -0.09205905       0.13840858
H        4.21091973       9.31429299      23.95242912      -0.52270270       0.29486916       0.40421200      -0.01022264      -0.12525223       0.06730717
N        9.42726923      16.30335727      15.95169048      -0.56694042      -0.03687808       0.47191479       0.05851424       1.03672906      -0.19602744
C       10.81991717      15.68801041      15.93511416      -0.88976051       0.87947669      -0.91806496       0.67131143       0.08097485      -0.69200224
H       10.70960602      14.76592516      15.35389468       0.39790966      -0.01290686       0.03959751       0.03728994      -0.10306658      -0.01916693
H       11.12257587      15.51107180      16.93921957       0.21419007      -0.28126172       0.98062464      -0.11911129       0.26856902       0.02321434
H       11.50773986      16.42501606      15.48034999      -0.25912987      -0.34187307      -0.08550088       0.15417238       0.24446310       0.05627431
C        9.29212902      17.76538461      15.72198332       1.80429670       0.52617691      -1.14731538      -0.71741338       0.73602313       0.39919043
H        9.97216855      18.27640672      16.42966769      -0.50864774       0.01628921      -0.12722405      -0.07481532       0.10092985       0.11937361
H        8.24757340      18.04452680      15.79579674      -0.23013034       0.16297851       0.30396010      -0.04677915      -0.08186008      -0.03573419
H        9.64558823      17.97969599      14.65233768      -0.30711769      -0.18685658       1.18980932      -0.01082509      -0.19337994      -0.08434278
H        8.91537087      16.07631693      16.83102029       0.35531213      -0.07660806      -0.25518815       0.22296106      -0.12426035       0.09741480
H        8.84290849      15.92907431      15.18598092      -0.02924791      -0.67206640      -0.23188840       0.01610364       0.16151361      -0.11514782
Pb       0.41751404      13.23887271      19.79833648      -0.22772188      -0.02648908       0.01740108       1.91159915      -0.11493028      -2.23179779
Pb       6.29862705      13.13934664      19.68218279       0.14558404      -0.11561025      -0.24890604       2.60455068      -2.65579696      -4.35634763
Pb      -0.29787375      13.07971111      13.48563689       0.08427534      -0.13523519      -0.19414925       1.79094759      -2.85377311      -2.50715335
Pb       6.82683316      12.58506154      12.90573998       0.01236110       0.06019641       0.18353874      -1.51756889       1.69505944       2.12874296
I        3.38920502      14.41044185      19.67996794      -0.14606231       0.02177392      -0.04692215       0.39447954      -2.68522937      -0.84904731
I        9.64746302      12.72060828      19.95208193      -0.11501833       0.01429480       0.02303766      -0.24417993       1.07807511       0.37541314
I        6.18233561       9.74198808      19.51692819       0.20867383      -0.05823295      -0.09941086      -1.65874067       0.19053605       2.15265707
I        7.07924681      16.24204682      19.62276779      -0.01143123       0.14275683       0.01946781      -4.20504416      -0.34144799      -0.41142710
I        9.86544523      11.86502447      13.67823302      -0.07164715       0.18129333      -0.22149616       2.33795002      -1.25837672       1.36041583
I        2.90587095      13.53946694      26.39997200      -0.13780990       0.00827487      -0.00130368       1.58295205       2.87740741       0.10077863
I        6.73796100      16.05329060      25.28615456       0.12959563       0.17131301       0.13230884      -0.47107707      -1.82233542       0.63548776
I        6.49181367       9.57095910      13.29076728      -0.02550572      -0.37227697       0.09146228       1.29644073       3.69502367      -0.39245504
I       13.00214831      12.00695351      22.61348479       0.05031180       0.08042966       0.13403256      -1.24378543       1.34272185       0.87032125
I       -0.00344623      13.32837320      16.52633165       0.06171904      -0.23950556      -0.13771920      -1.04903165      -0.50730657       0.02620468
I        6.26576979      13.29954928      16.40216125       0.13450306      -0.05802316      -0.02853729       3.58530730      -0.29189061       0.04574977
I        5.99543841      13.05336189      22.90304145      -0.00795167      -0.01635924      -0.19276704       1.60967717      -0.04331677      -1.77453139
Cs      15.85804848      16.08940789       3.24292154       0.03943711       0.00554754       0.04447535      -1.61697579      -3.38528303      -0.55552740
Cs       9.50947371      23.00494345       9.50171842       0.03159468      -0.03654798       0.05453673      -2.28832717       2.39689350      -0.94633419
Cs       9.74379470      15.86167932      10.09928936       0.07485553      -0.01115438      -0.25352833       3.60421195       0.74204448       0.52872448
N       14.89202195      23.37896222       3.85890241      -1.45372405       0.91951939       1.58800842       0.21412137      -1.25768107       0.21514660
C       16.20924371      23.87893534       4.25148968       2.08610545      -0.99806858      -1.56982707      -0.10742478       0.26102603       0.54351646
H       16.78706861      22.98455563       4.55087647      -0.03450247       0.25790361      -0.00699586       0.07801365      -0.04842665       0.19384280
H       16.28009179      24.59666659       5.04840201      -0.67789736       0.49680101       0.54430961       0.01345044       0.13485902      -0.01761110
H       16.70614341      24.31142927       3.34582009      -0.27135381      -0.22177090       0.48846451      -0.07652861      -0.06062078      -0.13466424
C       14.82371370      22.05549622       3.20759766       0.26671803      -0.13595497      -1.19796881      -0.61434581      -0.80788674       0.26989603
H       13.91765694      22.01319595       2.51774980       1.40972645       0.19068417       0.09583871      -0.17704826      -0.17780312       0.18527921
H       14.59073856      21.30357818       3.92025730      -0.06931993      -0.77137512       1.20651622      -0.09008820      -0.12662455      -0.06673656
H       15.85653589      21.79760214       2.81717296      -1.27488646       0.41384681      -0.18019017      -0.07330379      -0.13624513       0.26115920
H       14.41524701      24.09729248       3.26463279      -0.09546142      -0.02697369       0.15793032      -0.15581597       0.37675331       0.02687207
H       14.32576253      23.37618215       4.78985677       0.24161425      -0.32298004      -1.10068438      -0.37321841       0.03741691       0.10543464
Pb       6.39492510      18.75683182       7.09783090      -0.02073494       0.15026723      -0.57773327       0.01832428       5.31372681      -2.11539872
Pb      12.88573014      19.19775289       6.74770545      -0.14243845      -0.08144800      -0.26332995       1.83324565       2.16400825       0.21238663
Pb       6.04297984      19.21190575       0.10787373       0.37960446       0.10338538      -0.00332691      -0.42756637       0.58599905      -0.14809428
Pb      12.68735462      18.80890824       0.03054241      -0.10083667       0.29240886       0.13375770      -1.24036162       1.25003013      -2.93428551
I        9.52927031      19.11091056       7.08067695       0.30066806       0.19816390       0.01064114      -1.58669484      -3.45589522       1.08999223
I       16.08396578      18.46426507       6.80889853      -0.11280186       0.15914573      -0.09662243      -2.37572026      -0.12266570      -0.57880545
I       11.81163299      15.75010461       6.64753093       0.23748922       0.00248238       0.07048278      -1.62933947      -0.76697507       0.12120800
I       13.04451186      22.50848717       6.84511050       0.08612109      -0.01776858       0.28595250      -0.03502731      -2.66950044       2.75971136
I       16.01968771      19.12051122       0.07792766      -0.03196543      -0.07653824       0.00853151      -0.34385415      -0.18320524       0.26232759
I        9.88291675      20.47939015      12.55942067      -0.14786970      -0.10516231      -0.00387773       3.79307053       1.56770825      -1.84989328
I       13.74093788      22.65427875      11.89123307      -0.18730522      -0.03904653       0.19183266       0.40135494      -1.21390480       0.30008322
I       12.03201813      15.82757563      -0.20443497       0.07653392       0.11238990      -0.14340087      -0.31833331       0.14553550      -0.12246825
I       19.25378144      19.33761874       9.72789725      -0.12365605      -0.01731978       0.10244254      -1.08754232       1.50689212       1.86441774
I        6.38879870      18.58318644       3.12564605       0.02891240      -0.04851685       0.07257966       0.74277824       0.80108497       0.05400802
I       12.44239770      18.16450777       3.38095562       0.11359937       0.11661474      -0.09840617      -0.24787127       0.47710089       0.98966995
I       13.08385518      18.67160952       9.70804839      -0.06354047       0.09190802       0.01330577      -0.78508413       1.07585402       1.60952412
Cs      16.61685120      15.92785905      16.63532022      -0.10679862       0.02993262      -0.13027408       0.11502705       1.25803137      -2.53176961
N        9.49190460      23.40473062      22.72814588      -1.67075147       0.75943060       0.08576179      -0.26495198       0.32741330      -0.26388889
C       10.77471690      22.75382443      22.50835796       0.80836989       0.89675099       0.37085883      -0.50615173      -0.56714601      -0.64785876
H       11.56226935      23.51740188      22.43218222      -0.20544715      -0.01785490      -0.52923664      -0.04440122       0.18196952      -0.21061049
H       10.71302368      22.07261981      21.70069538      -0.08732792      -0.46419891      -1.31670188      -0.09657477       0.01748977       0.06228796
H       11.10142576      22.18747508      23.34318327      -0.17145215      -0.76070473       1.32085131      -0.19866310      -0.08902749      -0.22872038
C        8.25826050      22.43010564      22.73425395       1.05463907       1.21637793       0.88122096      -1.13780544       0.77825362      -0.12969486
H        8.51312172      21.56553003      23.39323348      -0.09020147       0.44524513      -0.68580984       0.00129410      -0.06713946       0.12966725
H        7.98065894      22.22745019      21.70862096       0.29049599      -0.51220404      -0.43178464      -0.14860189      -0.28236325       0.11628594
H        7.41186020      22.99258203      23.15235566       0.15417334       0.02884701       0.19436076      -0.17796434      -0.12869038       0.16850516
H        9.37321535      24.21060917      21.96894460      -0.08491633      -1.16985764       0.55747347       0.14195645       0.04195715       0.36566703
H        9.51324458      23.95311526      23.61923159       0.02355582      -0.54311330      -0.30299501       0.01532614       0.30157543       0.06554713
Cs       9.99366970      16.20163591      22.20192418      -0.16694820      -0.00152898       0.11422406      -1.24769010       1.80257919       1.16723912
N       15.66874285      21.98630620      16.16362565       0.12681992      -1.92642368       0.64918742      -0.10864448       0.70434392      -0.37209699
C       16.57629874      21.80262878      17.32353392       0.06094676      -0.26242910       1.11640645      -0.03267914      -0.02090024      -0.38550635
H       16.91732694      20.77231567      17.38380232       0.39000528      -0.33102795      -0.57008209      -0.10667165      -0.12489173      -0.04842350
H       16.02123632      21.84228816      18.31475540       0.39873785       0.89139424      -1.03270789      -0.22317092      -0.13847725      -0.05171367
H       17.44850917      22.50047809      17.17080099      -0.81544178      -0.46823488       0.61083899      -0.17145367      -0.02209763      -0.24277706
C       15.10074723      23.31009524      16.22110762       0.16543601       0.62128889      -3.26396972      -0.43649990       0.70459303      -0.37306041
H       14.58672765      23.53759474      15.22808200       0.26082704      -0.51430610       1.03323842       0.13036008       0.09400188       0.04066593
H       15.98916195      23.96120716      16.16104707      -0.50448308       0.39974659       0.89007850       0.26901782       0.16256173      -0.32734780
H       14.37794372      23.34537035      17.01171769      -0.02250358       0.41264830       0.81869662       0.08923089       0.04945665       0.04856908
H       14.89179010      21.17459079      16.12921367       0.75469145       0.81344906       0.04196739       0.18611799      -0.12140587      -0.03009211
H       16.29462677      21.81103121      15.36239800      -0.49070402       0.29345280      -0.38519877       0.12438526      -0.32574246      -0.07404016
Pb       6.12703089      19.55798369      19.29216465       0.03050510       0.07314296       0.14402075       4.47176526      -0.24634848       0.89646648
Pb      13.08687602      19.19948501      19.61972530      -0.02362358       0.13103048      -0.07297495       0.83970369      -9.21686280      -1.34082275
Pb       6.77955449      19.21812873      13.02072775       0.10621591      -0.06120320       0.13598833       1.65574632      -3.49607437      -3.98877660
Pb      12.90415035      19.66484333      12.68447012       0.18160390       0.01024651       0.08665934      -0.88917608       3.08691953      -1.34116971
I        9.70674219      19.73253877      19.34820402      -0.07774579      -0.28886661       0.22977006      -0.83350588       0.02884938       3.75885393
I       16.28808712      18.43556733      19.42231285       0.02213209       0.16225870       0.00124207       0.72011870      -3.24064864      -0.23884345
I       12.65843118      16.15062868      19.63438249      -0.12041476      -0.20286827      -0.29466366       1.63867241       1.04826295      -0.34007534
I       13.11261053      22.57827233      19.55576844       0.08479965       0.05202131       0.11077922      -2.30795983       4.39805703       1.73499879
I       16.39591908      18.84910387      13.02552666      -0.15021473       0.31256093      -0.12125491      -2.88951248       5.25117426       0.84323971
I        9.41334847      19.68734861      25.64577585       0.14553342      -0.19554471       0.08222634      -0.49468895       0.47158923      -3.12292747
I       12.41912070      22.74111590      26.03309660       0.11818168      -0.01078732       0.02527231      -0.11566284      -1.18557884       1.05301414
I       12.47608435      16.06627292      12.66737985       0.05824052       0.00768580      -0.00956463       2.73816055      -0.66122162      -2.16535335
I       19.61271389      19.77645694      22.95905699       0.04331560      -0.10559248      -0.10412382       0.38855480       1.30498488       3.22070477
I        5.84943381      19.80826106      16.13727939       0.02562639      -0.07146241       0.06902697      -0.10231264      -1.01168827      -4.44263120
I       13.70371879      19.36564298      15.79548433      -0.23788966      -0.19307169       0.17276432       0.41457769      -0.80205671       0.63312043
I       12.92240052      18.73705479      22.79531029      -0.13188823       0.30844232      -0.02691522      -1.84569377      -0.48804713      -0.11892765
N        9.87817412      23.37689123       3.31537461       1.35927100       0.21888495       1.25815284       0.69830038       0.39842843       1.09514361
C        8.64609845      22.84666308       2.78497728      -0.55295347      -1.93376683      -1.10313608      -0.03832286       0.05125868       0.08515571
H        8.07531884      22.28436975       3.54045069       0.24862497       0.17563646      -0.00044544      -0.19083186      -0.16159219       0.01713819
H        8.91001799      22.15935918       1.93901336      -0.12701071       0.18536546       0.64083464      -0.05017235       0.04028756       0.21213718
H        8.03097904      23.60155208       2.32393825      -0.25835876       0.65143186       0.09241099      -0.11196440      -0.17025794      -0.12617407
C       10.90567986      22.37919625       3.94299346      -2.21490683      -0.45830287      -0.02218166       0.12933444      -0.02549633      -0.03184136
H       10.44809525      21.80417783       4.79606553       0.00752103       0.77010464      -0.59725321      -0.36989961      -0.05536981       0.42869171
H       11.63477293      23.06111849       4.29822406       1.28141221       0.27408910       0.42949015       0.27588545      -0.34050991       0.24105353
H       11.23492471      21.62581717       3.21961768       0.06139106       0.42877103      -0.31658254       0.06959991      -0.27395857       0.21709719
H        9.70486296      24.15327298       4.01385301      -0.14835902      -0.50071908       0.10983291      -0.11222335      -0.11418160      -0.01542699
H       10.36643541      23.89776357       2.57839704       0.26164942       0.03083515      -0.58656419      -0.19312236       0.03113299      -0.21949266
N        3.78556368       3.00250121      10.11186617      -1.35747616       0.57377622       0.34673082      -0.68351670       0.23064721       0.18100232
C        3.57554611       4.50194691       9.99509147       0.21942949      -0.67413556      -0.69046939       0.87318595       0.90536146       0.06384176
H        2.54491457       4.77501491      10.16849255      -0.46836721      -0.18074572       0.63959428       0.06625534       0.02185159      -0.19970534
H        3.72387790       4.79669979       8.95657672       0.59729147      -0.05827394      -0.11072320      -0.03842898      -0.19875730      -0.13981475
H        4.27567810       4.94283056      10.68188670       0.21392964       0.59001326       0.31262594       0.06814543       0.18762569       0.31495103
C        3.07350389       2.27709152       8.99810823       0.60321367      -0.78039392      -0.68999240       0.01147789      -0.76994510      -0.05742620
H        3.11701307       2.90254565       8.08749824       0.31693561      -0.06441207       0.28241992       0.11899825       0.04808246      -0.07501073
H        2.00358477       2.05899559       9.13148149       0.20306549       0.17970864       0.75959793       0.25567135       0.23624208      -0.00136878
H        3.62226167       1.32108734       8.79091850      -0.42372102       0.65872463       0.23502607       0.17221096      -0.01847079      -0.04886274
H        3.43768715       2.74787520      11.10515560       0.57454841      -0.29479991      -1.25659007      -0.21443127       0.01601277      -0.04683660
H        4.79797057       2.78989830      10.02987178      -0.19100404      -0.08758248       0.31536123       0.11691956      -0.33425482       0.17414435
N        3.29485451      23.09993300      10.60641913       1.91666684      -0.68217044      -0.87364774      -0.49321928       0.22157288       0.16856871
C        2.50054878      21.95517259      11.04490104      -0.69328449      -0.27221261      -1.35631328       0.76580113       0.42295566      -0.89697187
H        2.42783633      22.01002105      12.10750338      -0.44830390      -0.19895664       0.94460857       0.21262942       0.35271755      -0.20926335
H        2.93421508      21.01534690      10.69504942       0.48274447       0.02571321       0.15767660       0.04883218       0.06965631       0.28046033
H        1.55505906      22.03097577      10.49768557      -0.31227251      -0.00301169       0.40836919      -0.16070566       0.02616996       0.11480226
C        3.91815562      22.92316026       9.25531371       0.37046120       0.24343390      -1.16969673       0.50967816      -0.19621339      -1.23051086
H        4.52171353      23.88992454       9.00475679      -1.12374204      -1.53929830       0.21376521      -0.06060087       0.22686534       0.21508424
H        3.07139075      22.68775352       8.53161459       0.94825093       0.55884161       0.61111656       0.11661861       0.13669035       0.04152397
H        4.62487149      22.04305207       9.24160064      -0.56373238       0.70669671       0.26538442      -0.16662602      -0.26552186      -0.14528252
H        4.05574858      23.23859148      11.27797994       0.58959542       0.01704925       0.49083758       0.06181744       0.14629987      -0.20224723
H        2.81715911      23.97200845      10.57693941      -1.29252128       1.17216990       0.16910715      -0.01592666       0.00289832      -0.17696270
Cs       9.88273045       2.62833626       3.02944099       0.11813007       0.36933979       0.09050218       3.14620373      -0.01406897      -0.11898015
Pb       0.08349929      -0.04966071       6.84908001      -0.05399170      -0.15639346      -0.14547757      -2.19017690      -0.27955826       1.30679509
Pb       6.52831856      -0.53369335       6.34198571      -0.16490519       0.22102927       0.05336154      -4.92821787      -2.22998163       2.05807229
Pb      -0.37347601      -0.09380133       0.18194416       0.36405088      -0.10823204      -0.07977855      -1.48077837       1.30355431       0.53548843
Pb       6.25135913      -0.03769275       0.18899619      -0.01276250       0.03796668      -0.15929795       5.57329435       4.10901750       0.23216050
I        3.06952693      -0.36783945       5.57411261       0.25851587       0.08110757       0.22567085      -1.86665005       1.54672660      -2.10960174
I        9.57894764      25.60190811       6.16759821      -0.16550007      -0.06915194       0.07931048       0.58361396      -0.60176436      -2.11508277
I        6.65927297      22.24986574       6.82313542       0.09719706      -0.00820699      -0.08281191       1.73259225      -1.46541700      -0.92699559
I        6.85829529       3.10914206       6.78195448       0.03642774      -0.03286069       0.05210708       0.25749909      -0.93952857      -0.01644404
I        9.73918889      25.91779194       0.53595895      -0.10231165      -0.19843492      -0.23209332      -2.35015487       2.26274516      -0.01412562
I        2.79046554       0.72578413      12.86151499       0.22060795      -0.13066035       0.13531936       1.35066363       0.63375721       0.26159335
I        6.93605988       2.90505788      12.61507704      -0.00033255       0.19562490       0.08835402      -2.42054051      -2.61523370      -0.39271555
I        5.59587395      22.67383998       0.55394481       0.02648677      -0.08727951      -0.19643258       0.84534403      -2.47419388       1.68879368
I       11.86425113       0.23023749       9.78364109       0.02477754      -0.00613437      -0.09238296      -0.64113860       0.55701698       1.80677424
I       -0.21764246      26.16998684       3.82511645      -0.05527534       0.09060599      -0.22103667       0.21140624      -2.92991185      -0.04576869
I        6.84287651       0.77504507       3.13848814      -0.46425020      -0.18483347       0.15771983      -1.43729419       0.14368097       0.73297340