600
Lattice="25.9953752269578 -0.0980626887355874 -0.08972618705981339 -0.13134714534956798 26.139766488008327 0.23438376948153852 -0.03945644770489285 0.20707760073714598 26.186897078685" Properties=species:S:1:pos:R:3:forces:R:3:momenta:R:3 energy=-2374.97900390625 stress="0.0014431132003664973 -0.0005439637461677194 0.00024230661801993844 -0.0005439637461677194 0.0012834030203521252 0.0003534503048285842 0.00024230661801993844 0.0003534503048285842 0.0014589242637157442" pbc="T T T"
N        9.28168517       9.80182179       3.35627735       1.62101333      -1.76274860      -0.53876829       0.42784970      -0.93055524      -0.15340739
C        8.43461656      10.79726114       3.98023125      -0.96841878       0.18601894       2.25753438      -0.65464622       0.04947242      -0.19015632
H        8.86968481      11.08329382       5.00089314      -0.07541679      -0.35340652      -1.09491165       0.10199640      -0.07492515      -0.04663438
H        7.43286540      10.37534395       4.26945576       0.56518126       0.28836101      -0.74926148      -0.08928885       0.06805737      -0.15364265
H        8.39298101      11.68959735       3.37969854      -0.22756554       0.44909476      -0.51695119      -0.17149635      -0.10169203       0.21934052
C       10.71141027      10.18131419       3.30974171       2.03107444      -0.67396871      -0.05882547       0.38720466      -0.18474241       0.31016092
H       11.01467007      10.60412628       4.27186958      -0.31745888       0.55291104      -0.09432949       0.04001447       0.12740489      -0.11473398
H       10.75487887      10.83622067       2.44753396       0.61569336       0.68591807       0.01294100      -0.04838978      -0.16459770       0.10810385
H       11.52474488       9.35464870       3.17405276      -1.84486764       0.68463269      -0.13500717      -0.04264696      -0.14691123       0.26918374
H        9.09266443       9.47877657       2.37648616      -0.97325008       0.41299958       0.34684372       0.19377513       0.17084167      -0.08670625
H        9.29516357       8.95617603       3.92034656      -0.53057336      -0.71009115       0.56669728      -0.11200176       0.12820550      -0.46353560
N        3.17961593      16.59089458       9.65532793       0.78065372      -0.29119191      -1.13702543      -0.74958072       0.03652642      -0.10860077
C        2.11970538      17.08187821      10.54173911      -0.28118432       0.47155183      -0.97480719      -1.02874822       0.08689670       0.66345851
H        2.55754845      17.91518856      11.06940172      -0.11137882       0.43021421       0.54117752      -0.18913526       0.01988106       0.12677202
H        1.82674839      16.28052550      11.19053044      -0.26231641      -0.47766453       0.57294474       0.04502147       0.06404354       0.07436029
H        1.28041352      17.40934733       9.89891283       0.21604076      -0.09098901       0.40435280      -0.18758702      -0.06032944      -0.20791324
C        4.41837733      16.07187600      10.38995034      -2.98290615       0.91214013       1.47650261      -0.26240520       0.63613317      -0.96314277
H        4.36209075      15.02219393      10.51847573      -0.12401891      -1.28980618      -0.15328861      -0.03844156       0.01825020       0.00850061
H        4.37277630      16.51489024      11.41184628       0.08182728      -0.01306801      -0.56172950      -0.03192750       0.02825041      -0.04514430
H        5.25107786      16.39920882       9.88396792       2.16113247       0.64757864      -1.27623754       0.16480397       0.28628705       0.10501808
H        3.48391056      17.37559181       9.00289271      -0.14033407      -0.25465036       0.38283812      -0.07260956       0.20564519      -0.16204676
H        2.74452385      15.92457249       8.96256359       0.62702053      -0.10200846       0.58245374       0.05694370       0.18157599      -0.19703934
N        3.14657131      10.32432063       9.27899739       0.84525325       0.18466904      -0.05648893       0.63483389      -0.62627990      -0.61642430
C        2.97076390      11.26533611      10.38542523      -1.14534785       0.94968861       0.86369618      -0.41658511       0.44760660      -0.07215830
H        2.95884752      12.33649390      10.12214362      -0.08691326      -0.28538449      -0.70570327       0.17312865       0.12120112       0.20330549
H        3.79616607      11.17346245      11.05495443       0.64226456      -0.43028562       0.82277028       0.03486088      -0.17281276       0.03714086
H        1.97634400      11.07200359      10.89345775       0.96896339      -0.11393597      -0.29797134       0.23389111      -0.12257766      -0.07940364
C        3.45837782       8.94117049       9.74547755      -1.56932671      -0.57739507      -1.27860669       0.50016425       0.05501101      -0.41575011
H        3.88441652       8.32072666       8.88934395      -0.32424133       0.69087004       1.07386252      -0.05579101      -0.12112741      -0.03615716
H        2.48814490       8.50273294      10.07429471       0.63117196       0.05080406       0.03203380       0.12681977      -0.03023282       0.18768307
H        4.11767784       9.11721975      10.56542447       0.77328959      -0.48656316       0.64980104       0.18253201      -0.34530337       0.05597923
H        3.96967366      10.53492907       8.67517530      -0.36161747       0.57332576      -0.14983347      -0.07416059       0.11457597      -0.05207613
H        2.27180103      10.42653165       8.75715168      -0.35481577      -0.54327460      -1.03754646      -0.31619798      -0.06043901       0.37353575
Cs       9.49973258      16.67195944       2.98432167      -0.00251267      -0.07781334       0.01957398       0.39268341      -3.30172908      -0.00075232
Pb      -0.26048032      13.34522330       6.80762001       0.24383060      -0.06127392      -0.05222906       0.20775233      -2.36158343      -0.58299985
Pb       6.65055399      13.68223564       6.53264144      -0.23946507      -0.16411045       0.08713443      -0.98709963       0.71237914       1.39585960
Pb      -0.58822528      13.16823795      -0.29435722       0.23216552      -0.18912299       0.30845178      -2.49970107      -0.17548278      -2.68013738
Pb       6.10244614      12.97263457       0.13474716       0.01557444       0.08237535      -0.01481238       0.50465077       1.26202704       1.05264284
I        3.28131079      13.60787816       7.19505642       0.06791580       0.15991361      -0.06775366       2.13078979      -0.81853100       0.22545627
I        9.94740784      12.76367213       6.94061380      -0.04038123       0.11169820       0.02487566       0.67610405       0.67817473       1.41735814
I        6.07096935       9.71481579       7.06032188       0.14275871       0.00938267       0.00846633       0.63435999      -1.62433851       0.75792289
I        6.95599289      16.56754817       7.27581389       0.09182996       0.24614886      -0.19030982      -2.48348153       0.51840615      -0.73195221
I        9.16792834      13.19714409       0.71971425       0.27607939       0.27536792       0.01283507      -0.86634710      -0.32991118      -1.18909231
I        3.24546588      13.80848416      13.30168676      -0.17794785      -0.27374211      -0.16507327       0.57219689       1.60130050       1.73165261
I        7.46698170      16.28894954      12.64728300      -0.09665765       0.10941865      -0.18700718       0.22319738       1.05968015       0.04179779
I        6.83245974       9.69394787       0.74468731      -0.21025797       0.08875726      -0.01528405      -2.12962889       1.45455310       0.09246692
I       13.98239783      13.02834377       9.56696951      -0.24152455       0.15199491       0.12985606       0.09687626       3.26773738       0.90737983
I       -0.10306972      13.13554350       3.52919375      -0.09659153       0.20190977       0.10947788      -1.38545923      -0.09495443       0.42585548
I        5.82030375      13.80424528       3.20508672       0.10816337       0.08138024      -0.02484121      -1.22519187      -1.12049884       1.17085520
I        7.12384729      13.20991304       9.59036139       0.08843788      -0.14916876       0.09221070       1.52383410       2.69650873      -2.68315373
N       10.13842761       9.52852348      15.68997477       3.43067128      -2.28624552      -2.32073685       0.19216342       0.07071960      -0.95544338
C       11.42705761       9.87097806      16.38896584      -1.43251219      -0.11031333       3.05373164      -0.22460772       0.51871184       0.39675782
H       12.30220906       9.29660111      16.06440951      -0.21628981       0.14738264      -0.31051634       0.14530802       0.10748441       0.03634953
H       11.13529858       9.55177038      17.47832123       1.03198666       0.38079739      -1.55131662      -0.11957643      -0.15702316      -0.22558929
H       11.54405664      10.96697892      16.45337637       0.14199146      -0.27302440      -0.44135206       0.20580684       0.12723005       0.35838736
C        8.95651889       9.79060776      16.38406216      -2.67463750      -1.75641422       1.52782459      -0.78512630      -0.28043483      -0.48609217
H        8.85276753      10.76991770      16.79109872       0.31140150       0.99084611       0.39963925       0.21316487       0.23140459       0.07339708
H        8.86490616       8.98858221      17.19428421      -0.16436951       1.11026296      -0.63046706      -0.02451304      -0.20443879      -0.11851228
H        8.16646161       9.63780174      15.64194126      -0.51511439       0.01725261       0.34494891      -0.04572349       0.34306569      -0.01168584
H       10.18518264       8.45592314      15.50865224      -0.09288984       1.41870794      -0.02232771       0.10417065      -0.11452449      -0.10167710
H       10.09343302       9.91782771      14.72498141       0.19867927       0.34282513       0.05172959       0.11117548      -0.25188286      -0.06433186
Cs       3.25668259      16.53471593      23.03869502      -0.10208844       0.10523378       0.01883156       1.01394590       0.36543729       0.81314436
N        3.58686311      11.16365318      23.35497780       2.97086149      -0.65904961       0.66190672      -0.69022608      -0.08009671       0.29468802
C        2.62689349      11.42429637      22.33271651      -2.63912495       0.98792325       0.03628588       0.93524332       0.12274622      -0.09721384
H        1.62938894      11.62563767      22.87479973       0.99867142      -0.52154552      -1.08544369      -0.03027327      -0.10239524       0.11979739
H        2.62572464      10.58214412      21.67060511      -0.43640128      -0.82567580      -0.40882673       0.02344762       0.09822342       0.03566854
H        2.84705184      12.28810283      21.68956556       0.27364937       0.19580582       0.40989062      -0.24959484      -0.15408488      -0.17823862
C        3.65885895       9.71561179      23.86337139       1.34787526       1.31801906      -0.08126527       0.67217636       0.25046769       0.47267033
H        2.78574180       9.64909273      24.50062896      -0.13048792      -0.54285307       0.37525969      -0.05926426       0.11889551       0.35975285
H        4.67728112       9.60578862      24.37696829      -1.48083134       0.00481209      -0.32405284       0.21324009      -0.03761284      -0.18403989
H        3.63035929       9.05841333      22.99393651      -0.14912727      -0.08801164      -0.11488279      -0.09876265       0.08103832       0.22094770
H        3.46034378      11.77295791      24.17565005      -0.34202852       0.40052963       0.33515726      -0.02078651       0.18589601      -0.23376273
H        4.55178844      11.44691740      23.00519866      -0.44781771      -0.16027415       0.08231209       0.19430647      -0.15013871       0.04270678
N        8.98099655      16.94610735      15.54356588      -1.68384072      -0.56246836      -0.01948151      -0.49204451       0.51152711       0.27459366
C        9.51262640      15.57844198      15.77659181      -0.24675606      -0.27262794       0.26101954       0.17405525      -0.73812464       0.58154514
H       10.52383737      15.68895316      15.53282454       1.91757772      -0.34375169      -0.37805743      -0.02348951       0.06081008       0.07162280
H        9.03596597      14.83496212      15.13693070      -0.17395318       0.13651779      -0.17752426       0.05477419       0.07040177      -0.03780164
H        9.42929109      15.22358708      16.81773079      -0.19224683       0.49404903      -0.06657797       0.01193674      -0.13055965       0.11061756
C        9.60995417      18.04768321      16.28884517       1.33467797      -0.05011678      -0.96585003       0.12226519       0.14318733      -0.19552174
H       10.72982575      17.93130085      16.08736921      -1.24100448       0.82816218      -0.09597977      -0.17354091       0.05409023       0.06757704
H        9.51111296      17.74549982      17.30779667      -0.30847802       0.31609949       1.19546222      -0.00891542       0.14321476       0.13420067
H        9.07672738      19.00405899      16.00536243       0.92118733      -0.77480902       0.45671635      -0.07088358       0.16659568       0.24664166
H        8.02051195      16.83788527      15.87366692      -0.49022875       0.41917180      -0.04838423       0.01294757      -0.17390424      -0.22549513
H        8.86232822      17.16699080      14.51765116       0.21980251      -0.24175237       0.12125521      -0.21059277      -0.11837504      -0.21043392
Pb      -0.49033480      13.60160720      19.82309349      -0.08088622      -0.06886192      -0.03454333      -1.22929927      -2.32008708      -0.24757646
Pb       6.49164048      13.46698675      19.43477493      -0.11358157       0.01788854       0.16892868      -1.76900463       1.75870096      -1.01705937
Pb       0.01303007      13.34792332      13.43133100      -0.18031266       0.04954467      -0.23184671       1.17961304      -2.20857928       0.99413753
Pb       6.40132538      13.16837902      12.98094823       0.19109896       0.03343377      -0.25688481      -1.11947133       0.52846380       1.12930853
I        3.21214511      14.71395212      19.97233968      -0.01861676      -0.35646634      -0.17635610       3.01881553      -0.77322057      -1.82816736
I        9.47007056      12.77878479      19.62986281       0.12492487       0.06377962      -0.09931530       0.17764014      -2.16950815      -0.24088078
I        5.84285462      10.06559442      19.98686000       0.09647551       0.30781304      -0.12844704       1.31000029      -0.33891984       2.76589026
I        6.80247330      16.56151889      19.54459738       0.07888353       0.11385350       0.00259638       0.85862964       2.25540345       1.84609284
I       10.00576382      12.03060079      13.03848039       0.04326722       0.15667756      -0.14821292      -1.23357114      -0.65697063       1.89351118
I        2.74635863      13.56912949      25.98112198       0.15555999       0.02051821      -0.06033400      -2.60447466       3.93401354      -0.94103434
I        5.61170776      16.59736985      25.88736553       0.10913997      -0.35981504       0.15392621      -0.05195645      -0.32244956       0.84768921
I        6.53690069       9.93078781      13.05426033      -0.12948570       0.00030329      -0.14831198       0.55014922      -2.25011476      -2.17446434
I       13.00646138      13.63245053      22.54048641       0.01733997       0.05223861       0.27454471      -0.97616673       2.15220387       0.88650896
I       -1.29720613      13.31386702      16.46974596       0.19356529      -0.10360296      -0.07069395      -1.49123154      -3.80520266      -1.68651417
I        6.33494982      13.36900738      15.94958000       0.06962816      -0.06034678       0.51578165      -3.94538174       1.15375473       0.18964040
I        6.39865949      13.32916517      22.76739122      -0.13029909      -0.03604725       0.06930011       2.17357040      -3.03203156      -0.92677676
N       16.15433638      16.92046320       2.58551459      -1.04061126      -1.09408784       0.05537731      -0.19916040       0.07259599      -1.06686121
C       15.87919983      17.61251688       3.87031712      -1.18664701      -0.77908981      -0.19951892      -0.87812570      -0.11927966      -0.12989777
H       16.63938717      18.35556101       4.10076678       0.27432403      -0.03422471       0.03563929      -0.27766252      -0.35435082      -0.02051106
H       15.80641869      16.78952783       4.56784017       0.23889426      -0.00320968       0.80332491       0.00622919       0.57906815       0.13779035
H       14.87432332      18.05873571       3.79089535       0.32140588       0.19149291       0.05595514      -0.02171847      -0.01152746      -0.06660845
C       17.37827295      16.04374712       2.61997036      -0.10487616       0.16713640      -0.04439188       0.42925122       1.35429362       0.00366679
H       17.44137552      15.43083671       3.53801187      -0.34782263       0.48690778       0.05805184       0.07638969      -0.07831360      -0.02532962
H       18.24959986      16.70979742       2.55143737       0.02033931      -0.20293360      -0.12779509       0.06736379       0.00486653      -0.12008435
H       17.26768809      15.31966559       1.81273114       0.38032610       0.12654078      -0.42149847       0.03374240       0.04351629      -0.24227338
H       16.17972509      17.69898139       1.91849370       0.61476951       0.28852439      -1.02613616       0.29215904      -0.27228881       0.35436745
H       15.31687716      16.34299641       2.22112986       0.97009016       0.73704475       0.78525150      -0.01452229      -0.09690281       0.03302246
Cs       9.12935816      23.29783967       9.58796250      -0.00560152       0.02356586       0.13799803       1.88731944       1.78528756       0.10470372
Cs      10.18082155      16.23924250       8.97379499      -0.11486471      -0.07973398       0.38305873      -2.11532771      -0.16755803      -0.96989600
N       16.12305600      22.73450747       2.63349723      -1.04036491      -0.10907997      -1.07201739       0.34352837      -0.47444828       0.36666890
C       16.07161075      21.26280797       3.01746942       1.90281096       0.00389862       0.02738058       0.76702634      -0.25476461      -0.81117156
H       17.11286793      21.06158299       3.48296506      -1.64231963       0.07787841      -0.19951316       0.01900220       0.04323845      -0.31788117
H       16.06413147      20.67144190       2.05334179      -0.33824421       0.42987347       0.86474633       0.03055206       0.06297334      -0.15662280
H       15.21640579      21.03223447       3.70153199       0.58883291       0.30091285      -0.52097141      -0.18714962      -0.21384927      -0.27725329
C       15.68349252      23.67768572       3.74941444       0.95100445       0.04493755      -0.73389044       0.24775007       0.16136280      -1.23794939
H       16.23314524      24.66152374       3.62098575      -0.80433291      -0.89157920      -0.00347383       0.29841877       0.07295381       0.03468644
H       16.08126288      23.17873542       4.65377831      -0.58923303       0.38832520      -0.01002655      -0.02303576      -0.27637681       0.15726628
H       14.57399466      23.74337716       3.64499517       0.73511979       0.15399052       0.53462045      -0.05431941       0.00976913       0.19913752
H       15.49613111      22.86390901       1.78434388       0.33175521      -0.06439612       0.85515721       0.18199949      -0.03494457      -0.05512576
H       17.05759017      22.97096051       2.23330889       0.02683645      -0.05786520       0.41513995       0.17371572       0.14310774      -0.11816220
Pb       6.16685127      19.86149872       6.33446796      -0.11899777      -0.21285958       0.15056609       2.22489511      -0.08499611       0.62303490
Pb      12.29517709      19.79039136       6.49489525       0.09706617       0.19570931       0.43355079       2.35264342       1.13449934      -1.55690670
Pb       6.14389513      19.32391222       0.04569564      -0.00224090       0.30927102       0.41610695       5.02433085       1.28012101       1.45149718
Pb      12.60916867      19.73075329      -0.26732192       0.10500039      -0.26645224      -0.06565203       3.28255597      -4.78394579       0.54458963
I        9.27601355      20.73379293       6.98468068       0.24267684      -0.26405278      -0.22405964       0.76332233      -1.33049802       0.61005780
I       16.21459998      19.65041890       7.08090244      -0.21694481      -0.18363428       0.04265237      -0.05831003       2.50071563       4.31994973
I       12.44215270      16.40307837       6.24565912       0.00844092       0.15341193      -0.10671874      -0.79841948      -3.30645151       2.12962898
I       13.14195247      23.03120135       6.54790869      -0.02317210      -0.08082633       0.20599033       0.68053533      -2.53307919       3.15001866
I       15.94691669      19.29121620       0.05188734      -0.13199669      -0.13057586      -0.59749942      -2.85754100       0.52260765      -0.92889428
I        9.48936066      19.86943938      12.97830828      -0.01989608       0.27701076       0.00497060       1.56224456       0.82860650      -3.02761406
I       13.33160873      23.06323225      12.14950905      -0.06676657      -0.11234562       0.09700592       1.36630798      -0.48099357       3.47038488
I       12.60902479      16.34665045       0.58563197       0.05290929      -0.15705388      -0.10753388      -3.13740272      -0.62181560       0.95867468
I       19.89775327      20.30867591       9.56673458      -0.19323757      -0.01078928       0.38564266      -0.05707656       0.61932044      -1.04188368
I        5.58176313      18.23039117       3.73254834       0.27899108       0.13783531      -0.15026643      -0.79979015       1.13802467       2.46900682
I       12.39323522      19.61273020       3.56736607      -0.23725257       0.03644383      -0.50528276       0.52392470       0.45376253      -1.73470672
I       12.25906181      19.23499479       9.87264704       0.06941082       0.09909003      -0.24702095       1.50273887      -0.92730871       2.07755131
Cs      16.58113596      16.48291656      15.77723943      -0.10930642       0.00922116       0.12756239      -0.18561019      -2.64160022       0.94522073
Cs      10.01261234      22.71837857      23.05562126      -0.08886834       0.07263940      -0.06136245       0.50291232      -1.33120398       1.87973989
N        9.54209856      17.78892569      23.00100500      -1.48166128      -1.16688144      -0.91421092      -0.65454884       0.49961695       0.23305938
C       10.19549556      17.45868923      21.71539925       1.00683043      -1.14810414       0.60677169      -0.28440225      -0.28038887       0.07714689
H       10.95394792      16.68462692      21.99436029      -0.26330569       0.44314063      -0.49088955      -0.11864229      -0.02395718      -0.16702602
H       10.66624717      18.34188403      21.36295192       0.61048637       0.85154281      -0.64397578       0.08745850      -0.03220239      -0.07913969
H        9.51162834      17.02081411      20.98070983      -0.21698513       0.20413309       0.17929935       0.03685744      -0.12130740      -0.13706772
C        8.87324077      16.54562435      23.48655941       1.34748763      -0.72244063      -0.06538653      -0.90363241      -0.04492018      -0.52044403
H        8.75710961      15.88776778      22.61407328      -0.05298003      -0.06345745       0.34467780      -0.07223053      -0.04468651       0.30489631
H        7.93346916      16.70124549      23.95454636      -1.00570941       0.51104140       0.43322954      -0.25188947       0.02175128       0.29695296
H        9.55654837      16.11531230      24.22486145      -0.05047261      -0.38343934      -0.05589785       0.08952281       0.18668344       0.05721219
H        8.79106398      18.46193355      22.86458389      -0.21286547       0.86981429      -0.00390500      -0.04097922       0.04229199       0.36312561
H       10.22054954      18.12306760      23.66668141       0.43471654       0.55510921       0.68140281       0.16302134      -0.05131388       0.20808905
Cs      15.87590332      24.02662986      16.17658140       0.20674240      -0.20771513       0.01348216      -0.85428166      -1.98159472       1.92803535
Pb       6.46991915      20.11941122      19.64969511      -0.28659066      -0.10631225       0.10735909       0.05239684       2.35229731      -0.56161619
Pb      13.18960142      19.68663900      18.78214245      -0.01376766      -0.20154954       0.16072645       2.12041718       1.37368163      -3.28558682
Pb       6.42740393      19.84057336      12.91586164      -0.20163435       0.03587193      -0.01921029      -3.51491084      -1.04758169      -1.68155171
Pb      12.94942012      19.70739450      12.91520827       0.05594598      -0.01316889      -0.22623423      -0.56752898       4.41136051      -0.73204620
I        9.49179653      20.55925543      19.54470071       0.16717294       0.09752735       0.18109938       4.95270180      -0.24940063      -0.64201531
I       15.92945781      18.72869882      19.65825292       0.07789435       0.19032487       0.09427368      -3.49126771      -2.24911791       0.77630909
I       12.59410268      16.48107278      18.55634544      -0.03706333       0.42627756       0.17347094       1.82532259      -0.81838570      -0.58546342
I       13.49141551      23.05883126      19.11631212       0.16238472      -0.29453390       0.19357241       1.01435077       2.22532729      -1.21242043
I       16.22137573      19.14784342      12.42033654      -0.06337403       0.04152925      -0.17158349      -2.11227672      -1.90041694      -2.83677704
I        9.42151489      19.57593247      26.32325410       0.07230101      -0.00296807      -0.02678564       0.10421547       0.27195656       0.52932744
I       12.88684911      22.91890185      26.24942388      -0.00585252       0.33285952      -0.07120763      -1.20044283      -2.22003233      -3.24710428
I       12.84018373      16.59269171      12.81951000      -0.06416223      -0.24601680      -0.00463731       1.72788498       0.17544983      -1.24684057
I       19.25299543      20.59090154      22.91945153      -0.16269414       0.05749208      -0.03681724       3.77130983      -1.09252286      -0.15492588
I        5.99760958      20.06566114      16.66598697       0.05586128       0.19736501      -0.20574570       1.27608549       1.23874867       1.09769295
I       14.10263524      19.68466467      15.83802375       0.09705835       0.02728131       0.27643859       1.53335958       1.17043712       3.62045910
I       13.25530079      19.98570966      22.72558286      -0.13108240       0.03464336       0.16012035      -0.24669208       3.08725664       4.24701119
N        9.87607816      22.26055798       3.45411134      -0.78927411      -2.16894840      -0.08841455       1.00167294      -0.02296286       0.01642626
C        8.46054563      22.19104773       2.76249323       0.49282978       1.06997821       1.75476640      -0.09829487       0.73312859      -0.79817544
H        8.53806379      22.75455580       1.81983834      -0.03278662      -0.34872589       0.01331069      -0.02532161       0.17144200       0.01014580
H        7.70578627      22.72773792       3.45808609       1.15410042      -0.83792150      -0.96502852      -0.05320001       0.15495805      -0.05451757
H        8.22981671      21.12162275       2.66295288      -0.16512171       0.23418322      -0.22963017      -0.06058642      -0.08087194       0.24701245
C       10.52608108      23.58453575       3.37089231      -3.25907071       0.79666070      -1.68697276       0.41923182       0.53168066       0.26542285
H       11.39246442      23.65604855       3.94288924       1.51024790       0.11246323       1.20685145       0.02688211       0.09133581       0.12616555
H        9.67103616      24.24674695       3.68880593       1.18536814       0.09772520       0.00779832       0.00429427      -0.03637850       0.06028907
H       10.70715400      23.81291530       2.29299513       0.09788329      -0.16087224       0.57189240       0.03647044       0.33329475       0.01498332
H       10.50049446      21.50321046       3.00210490      -0.62101951       0.78135541       0.70323734      -0.01815220       0.07479709       0.30758656
H        9.71330955      21.94596717       4.47493565       0.43442254       0.40802686      -1.09247757      -0.07954644       0.04788574      -0.05487489
Cs       3.81487902       3.13230504       9.56155482      -0.00963226      -0.06378580       0.15914530       0.83926240      -2.23991271      -0.47664632
Cs       3.47754949      22.94220385       9.50473264      -0.20557409       0.01530876       0.02842146      -1.38369690       0.29364881       1.34193966
Cs       9.85252732       3.21532343       2.69267075       0.04183120      -0.05976242       0.02254949      -2.53208148       0.29553408      -0.62424945
Pb      -0.11856528       0.24092705       6.40293771      -0.04723611      -0.31964092       0.01890775       2.52780805      -2.08669187       1.14082450
Pb       6.62506808       0.13779566       6.53810106       0.12867988       0.11440254      -0.17919796      -0.35980810       6.55234159       1.88866176
Pb       0.01389707       0.21105305      -0.25351135      -0.44595961       0.09771398      -0.09756809      -5.53664174      -0.01168047      -2.74314048
Pb       6.53476243       0.05631716      -0.17132046      -0.01429641      -0.30014260       0.15778455       0.62790955       1.83074239       0.75283988
I        2.92689531       0.05082311       7.04217413       0.19145413       0.02596434      -0.04308648      -2.57499407      -1.63458999      -2.68918956