880
Lattice="26.555206212864032 -0.0587806320584061 0.15172683757637606 -0.058233115566588986 26.977846523799276 -0.03431453608128604 0.1440826047424286 -0.0855373440443732 26.95445399081433" Properties=species:S:1:pos:R:3:forces:R:3:momenta:R:3 energy=-3846.3945312499995 stress="0.0012034976389259098 -3.4506123483879485e-05 0.000655271636787802 -3.4506123483879485e-05 0.0009857037803158162 1.4542473763867747e-05 0.000655271636787802 1.4542473763867747e-05 0.0010901937494054437" pbc="T T T"
N        9.97141706       9.80867009       3.49999903       1.40985863       0.26724337      -0.61410244      -1.32654962      -0.99795093      -0.38024042
C        9.89328308      10.88919625       2.47778809       0.60325681       0.07003307       0.08537531      -0.65871907      -1.29531853       0.07669159
H        9.09080013      10.51725948       1.86546446      -0.93578417       0.63351046      -0.46166267       0.11458923      -0.13901129       0.03963035
H       10.76553344      10.88986205       1.76653737      -0.25677261       0.14957975       1.03911679       0.16207852      -0.14394297       0.02754565
H        9.73479161      11.85599794       3.03105533      -0.00653996      -0.75963773      -0.85262409      -0.04940912      -0.04673706       0.03412873
C        8.65820856       9.65156537       4.19034450       0.59571679      -0.84055356      -0.80599930       0.59345976       1.16485045       0.17464414
H        8.48723426      10.59749244       4.59119369      -0.40105640       1.96446753       1.01720429       0.20154750       0.01327328       0.35579231
H        8.80156485       8.99064667       5.05434563      -0.44506300      -0.45064555      -0.48495356       0.15183739       0.17977754      -0.03908173
H        7.80447526       9.54335627       3.46823854       0.89382086      -0.74394199       0.43036411       0.08658595       0.32393275       0.01999115
H       10.74006236      10.07784477       4.18966113      -0.44133113      -0.09886601       0.11266001       0.10178388       0.09787880       0.00824621
H       10.41778670       9.00441831       2.99954579      -0.79369412      -0.33087123       0.46737831      -0.29923780      -0.09114525      -0.08624815
Cs       3.21479272      16.59644165      10.11924756       0.00429300       0.00148066       0.02129429       2.17115909      -2.42769491       1.46591740
N        3.89614339       9.60183447      10.62596717      -3.68036061       1.37008535       0.23974338       1.13873551       0.75429603      -0.45068448
C        3.53280142      10.58392352       9.52206640       1.75141560      -0.99491201      -0.30418318       0.85020044       0.83922137       0.39952632
H        2.98841434      11.40511699       9.90953576      -0.19888826       1.16450128       0.85270722      -0.18411587      -0.01316642       0.08377072
H        2.81084143      10.13292894       8.84155602       0.28029212      -0.55230474      -0.29147346      -0.07152736       0.47344053      -0.02862910
H        4.48122956      10.89721962       9.04969520      -0.57127183      -0.04858053      -0.19780544      -0.12342603       0.06801174      -0.14630044
C        2.68096815       9.69470629      11.59685026       2.09415182       0.95427614      -0.24888197      -0.01740780       0.14587940      -0.70222984
H        2.54118670      10.78792143      11.76492123      -0.12913567      -0.82257211       0.22349453       0.10040150      -0.20253534      -0.14977715
H        2.99881974       9.14471123      12.46454173      -0.09887137      -0.10093900       0.75258839       0.17083408      -0.03098311       0.30961139
H        1.85558525       9.21372509      11.14542776      -1.03937042      -0.39883097      -0.63696638      -0.04894653      -0.13920476      -0.04220190
H        4.70732894       9.76619147      11.21149916       1.12944886       0.56748384       0.17756152      -0.19694767       0.20910674       0.06663638
H        3.91240869       8.65544818      10.30182074       0.41699987      -1.12291784      -0.66581904      -0.28756391      -0.28345909      -0.22411456
N        9.64925170      17.25037450       2.62986322       1.00283953       0.48773404      -2.30448817       0.22719674      -0.72867726      -0.39143207
C        9.48967461      16.96211176       4.06487855       2.29640137      -0.12082858      -0.29907740      -0.27829623      -0.72949405       0.12792700
H        8.63057087      16.37451102       4.17563477      -1.35667821      -1.21865608       0.32848877      -0.16052019       0.02953898       0.00023403
H        9.37539170      17.87607185       4.62054643       0.07018083       0.56682084       0.31352817       0.03038986       0.05089305       0.04123108
H       10.41646801      16.39971605       4.34893725      -0.74598476       0.40300650       0.19892468      -0.21258837       0.00101520       0.05951749
C        9.96574257      16.02340685       1.74261411       1.31277275       1.85484075       0.47368114      -0.59381878       0.43268886       0.65850477
H        9.79675816      16.31427016       0.72178744       0.05485547       0.28008301      -0.64909983      -0.15524397       0.21224234      -0.05690550
H        9.35855104      15.21511849       1.94890237      -1.92018718      -1.55499298       0.82805969      -0.11986326      -0.08563447       0.27579413
H       10.98177877      15.64891405       1.88541161       0.33909060       0.44718647       0.15485093      -0.21776003      -0.08948144      -0.09607892
H       10.39892218      18.00355334       2.38672509      -0.94836932      -1.05207999       0.77086815       0.08673745       0.07401891       0.17974837
H        8.77236250      17.63809652       2.21508890      -0.06502098      -0.00283673       0.25719807       0.36360837      -0.15692750       0.13572566
Pb      -0.35210408      13.10823706       7.19987304      -0.03570565       0.26964690      -0.37761298       2.63990812       2.23657187      -1.32532201
Pb       5.96601916      13.27254562       6.59614564       0.29128484       0.22753743       0.05802543      -1.08077380       1.16693886      -3.67355399
Pb       0.08272704      13.79878325       0.21345124      -0.45660429       0.03741816       0.04564951      -1.18650251      -0.19940818       1.92058971
Pb       6.42352342      13.15120679      -0.03510425       0.10698904      -0.11460242       0.08389162       0.32742700       0.45024880      -2.27268396
I        2.82043240      13.56906915       6.80299282      -0.11280099       0.14801697      -0.05185738       0.13794444       1.23486745       0.36479453
I        9.25822063      13.49320189       6.33575807       0.02976712      -0.01581829       0.16773785       1.90956422       0.83357149      -1.42934545
I        5.92292333      10.23018972       6.35322840      -0.15489182      -0.13675321       0.02019078       2.25337706      -0.78367836       1.99758309
I        5.51220841      17.00833565       6.83329223       0.16158632       0.02636772       0.09373770       0.37519800      -0.60981370      -0.76014190
I       10.32527305      12.77916200      -0.34911682      -0.08524742       0.23056918      -0.22234851      -2.42524388      -0.08023166       2.28533748
I        3.21478856      13.38989309      12.98125596       0.13910514       0.18748010       0.16038689      -1.62710110      -2.66381789      -4.95330699
I        6.58852571      16.88944859      13.00663177      -0.11563013       0.00975826      -0.05767389       0.73108090      -1.12795137      -1.41289602
I        6.53756942      10.08106271      -0.06265545      -0.08468376       0.05181022       0.15236496      -0.80143537      -1.88310263      -1.10138749
I       12.96170102      13.19077244      10.06821229       0.13700968      -0.24847524      -0.15280370       0.99404751       0.07890362      -0.27128861
I       -0.28606134      13.93383670       3.89811033      -0.07474465       0.04345610      -0.18888651       2.02738219      -0.83998144       3.10625407
I        6.96425535      13.47134746       3.20104741      -0.28905748       0.01758173      -0.08715724       1.03852520       2.31321023       0.43630114
I        6.17872385      13.91854463       9.90446669       0.05962804      -0.01950211      -0.03460672      -0.54329533      -1.33969341      -0.40089361
Cs      10.06447335      10.27705671      17.01414652      -0.12475526       0.00024581      -0.15550697       1.41705339      -0.56200468       2.09129919
N        3.83658430      15.72246567      24.22393690       0.80446614       0.91316212      -0.47571222       0.70710606      -0.28779184      -0.54693964
C        3.31209222      15.84954112      22.84824147       0.34299435       1.48279427       0.17352963      -0.58837503      -0.25339062      -0.73946429
H        3.26413880      14.88801269      22.39683536       0.15015657      -0.92162993      -0.61244236       0.25918926      -0.16048511      -0.16121153
H        3.95405478      16.57072369      22.30588142      -0.18819389      -0.42844901       0.02623855       0.12106166       0.02862460       0.06967271
H        2.30791931      16.27519297      22.92886064      -0.13849573       0.00568039      -0.02424225       0.29251936      -0.15315101       0.12366357
C        3.51232213      16.91876918      25.04440709      -0.59513616      -0.75186103       0.57432078       0.25825631      -0.60129593      -0.75676279
H        3.55274559      17.83985941      24.48467121       0.08860721       0.26686537      -0.57161607      -0.24318682       0.01253745       0.21202645
H        4.24654600      16.93199395      25.82218930       0.46325163       0.31378614       0.79326057       0.20799173       0.12484058      -0.08978286
H        2.52953307      16.75724312      25.49177321      -0.24021874       0.21191039      -0.02195653       0.11146158      -0.08184266       0.16969403
H        4.86268968      15.61225066      24.32970515      -0.08119124      -0.19587182      -0.68721830       0.21412771       0.02717868      -0.14702087
H        3.45918672      14.86852014      24.62098346      -0.56797026      -0.73384983       0.79075862       0.20273034      -0.03525954      -0.04205920
N        2.81152057      10.88517802      24.15202852      -0.24694066      -0.51166891       0.84781588       0.23780868      -0.04084853       0.44552439
C        2.42108076      10.21829233      22.83657466       0.32144814      -0.80845312       3.27541785       0.36636458      -0.25815009       0.42913161
H        3.27395168       9.65839660      22.59386192       1.53575382      -0.52364489      -1.04899508       0.02390219       0.00718012      -0.16739310
H        2.08467100      10.91966798      22.16078642      -0.65631200       1.50064154      -1.70291437       0.09956228       0.13764111      -0.01704940
H        1.71359578       9.44198504      23.11497627      -0.69515299       0.11940325      -0.07593329      -0.07635967      -0.23446533      -0.19952774
C        3.08949751       9.88014654      25.24756279      -0.87273236      -1.77348892      -2.26908864       0.24335612       0.36462812       0.25042803
H        3.87818274       9.26918662      24.79848138       0.17488592      -0.29848801       0.27848505       0.03814982       0.09216494       0.05351478
H        2.18589093       9.21793604      25.40250313       0.66693513       0.75715848      -0.02397017      -0.12835814       0.05794343      -0.14823735
H        3.45587115      10.32547046      26.12357400       0.32420565       0.90064267       1.37418603      -0.07994650       0.02644255       0.04388634
H        2.09770405      11.49912800      24.52411039      -0.98479610       0.54417307      -0.07532258       0.03282093       0.02677389      -0.01865401
H        3.63595595      11.48503808      24.13577611       0.56372893       0.22894265      -0.67771001      -0.02986738       0.25384711       0.06469758
N        9.63360166      17.22516995      16.89633066      -1.31069133       2.17443761      -0.04396112      -0.04593898       0.35074709      -0.37711003
C        9.97418123      16.42292145      18.09349428      -1.43313410       0.23814159       1.77652211       0.57966106      -1.17690629      -0.26086633
H        9.82502224      16.98885484      19.12000550      -0.02107895      -0.80610936      -2.07510537       0.05610905       0.20071022      -0.09350327
H       11.00112981      16.11350086      18.09903546       0.77517658      -0.25118769      -0.42346960      -0.02668639       0.17344471      -0.27830936
H        9.31410106      15.53107275      18.01730363       0.36504401       0.41177051       0.46925256      -0.03944752       0.20574970      -0.22584608
C        9.06367859      16.41856452      15.78117592      -0.33787495      -0.99227306      -0.09592616       0.07083638      -0.58391718      -0.21458239
H        9.66684843      15.50053552      15.74424579       0.11453567       0.05137935      -0.09860165       0.07875835       0.24850822      -0.16023281
H        9.15584855      16.91397124      14.77437392      -0.46297794      -0.10859481       1.03118516      -0.19234733      -0.13214869      -0.11631553
H        8.04675153      16.08015580      16.10409891       0.44547218       0.51261331      -0.60034660      -0.23956924      -0.29407430      -0.08185134
H       10.46662362      17.66197303      16.47992706       0.46575770       0.45804622       0.43199325       0.38307066      -0.10695647      -0.34745900
H        8.94699273      18.06418245      17.16359390       1.32049347      -1.62862294      -0.54117752       0.09068969      -0.07705634      -0.00442023
Pb      -0.01533845      13.95898753      20.53831914       0.19782533      -0.06166190      -0.14947697       0.22320175      -3.77663491       3.12752137
Pb       6.57269099      12.91266474      20.31303723      -0.12226178       0.10938286       0.00580440      -0.63665754       1.98938200       4.59213948
Pb      -0.14426610      13.49552173      13.52248485       0.11515710      -0.01988066       0.11831533      -0.88617682       1.06713609      -1.58049780
Pb       6.64605394      13.05532621      13.64103748      -0.12526673       0.12662209      -0.03634614      -0.33272315       1.54413190      -3.56196849
I        3.34782743      13.35559188      20.08700453      -0.18295851      -0.03200787      -0.08408050      -2.83087635      -2.40127013       2.56533995
I        9.68421573      12.75331424      20.24200014       0.29682551       0.07698197       0.07420464      -1.58762560      -4.31338107       1.05355697
I        6.25004122       9.87031958      20.46342957       0.12533932      -0.05835503       0.03733408      -1.36165022       4.75493355      -1.21338452
I        6.86630665      16.66306649      20.02664422       0.02179269       0.01926853       0.27864670      -2.32281481      -0.26711817       0.85510555
I        9.88860389      12.57221142      13.16286258      -0.28666822       0.03432155       0.03086524       0.84603595      -1.18511124       2.84928102
I        3.18932781      13.47104387      26.84031351       0.50991731      -0.05988285       0.00897471      -2.05563994       0.33442621      -2.45226135
I        6.76789965      17.43359822      27.44733293       0.14973330      -0.23014310      -0.11422990      -1.19392486       1.26241540       1.81281438
I        6.09496794      10.13494859      13.37668279       0.25975592       0.05739938      -0.00183277       1.40384022       0.55354205      -2.18413388
I       14.08066310      13.69419429      23.17244579      -0.11831479      -0.04578192      -0.03099007       0.00513087      -0.81751735       3.94726444
I        0.09169666      14.17157251      16.58672140      -0.08057788      -0.12334786       0.08110231      -3.49527231       0.09493241      -2.47208346
I        6.85215077      12.64970820      17.13392194       0.06481694       0.00695803      -0.29359053      -1.02210777      -1.43878430       2.21168561
I        6.90776369      12.92899532      23.75042765      -0.19196559       0.13595405       0.05815246      -1.17908725      -4.13774990       0.11518462
N       17.26518290      15.87214087       2.68259502       2.10147217      -1.42990723      -0.60672821       1.07217226      -0.29721199       0.82411670
C       18.52949485      16.70641735       2.81664002      -1.29061840      -0.71834743      -0.33813330      -0.03402167      -0.62605795       0.75262037
H       19.31110870      16.22192520       2.26446971       0.52370284      -0.17147745      -0.49371154      -0.00615536       0.18638188      -0.00303318
H       18.82817158      16.84668618       3.83189492       0.02012098      -0.22030136       0.97690824      -0.24291538      -0.10638910       0.01001932
H       18.25112360      17.66210703       2.45278233      -0.05010420       1.12681642      -0.81424835      -0.18354913      -0.08153822       0.15902937
C       16.09960074      16.56440700       3.18368228      -1.50512524      -1.92530380      -0.86071442      -0.74930349      -0.06532457      -0.40591570
H       16.09235670      17.52079349       2.76000853       0.03119532       1.86339495      -0.11001047       0.02856322      -0.00324832      -0.09381653
H       16.18481089      16.42701164       4.23176383      -0.52588876       0.73136709       1.37747228       0.32678271      -0.20670407      -0.04983875
H       15.17997811      16.06308261       2.77892558       0.58059023       0.15044482       0.52362516       0.09912620       0.00834656       0.06776907
H       17.42692829      14.99564120       3.25572227      -0.06998137       0.52007408      -0.66632246      -0.05331998      -0.10438046       0.22910505
H       17.16687472      15.53347159       1.65128377      -0.08344787       0.33130492       0.88947422      -0.00001411       0.17356459      -0.04952205
N       10.05987933      24.33978575       9.42645122       0.31024217       1.11538409       0.82718895       0.11095914       0.53292918      -0.58687297
C       10.04964396      24.31439090      10.93020146       0.91855919      -0.16143762       0.45472568       0.38650379       0.30204501      -0.45629903
H        9.02701840      24.35299637      11.25218121      -0.73926764       0.19188379       0.23087358       0.12773919      -0.05841371       0.17719437
H       10.66048447      25.11633399      11.37948638      -0.32296026       0.10842946      -0.38936206      -0.19578854      -0.22685086      -0.12894567
H       10.47579588      23.37888344      11.35224759      -0.09459125       0.10504626      -0.66173335       0.24068645      -0.03696345      -0.30280236
C        9.50763079      23.07040816       8.94972613       2.19761126      -1.55539057      -0.81590948      -1.00184199       1.09056826       0.26635175
H       10.31956078      22.26596853       9.20078324      -1.56595234       0.96530130      -0.10867260      -0.03076372       0.14834045       0.23705804
H        9.53024393      23.09710127       7.83930308      -0.58782773      -0.04672824       0.40315616       0.12832233       0.08993068       0.19843832
H        8.55158710      22.87465424       9.43270224      -0.12765877      -0.05655681      -0.15491786      -0.08738444       0.16034713       0.34129682
H       11.08091935      24.43355244       9.09710752      -1.00957313       0.12848037      -0.05163172       0.05920753       0.15389224      -0.22096241
H        9.47134163      25.16679173       9.07216655       0.99179607      -0.90842498       0.27037591       0.04673436       0.18963723       0.11832918
N       10.44456342      15.45383775       9.88199273      -1.04863858       0.27200438      -0.88722336      -0.68373734      -0.20063341      -0.42027440
C       10.35381215      16.46858836       8.75472647      -0.62657773       0.15720612      -0.52753859       0.35143268       0.67449837       0.11963962
H       10.83904219      17.41138009       9.10777709      -0.27945315      -0.64970426      -0.29634512      -0.04985225       0.10615132      -0.24324515
H        9.26215038      16.70356688       8.45000445       1.44749867      -0.51396804       0.70506997       0.05370123       0.07762446       0.03777585
H       10.89181436      16.07682659       7.86559092      -0.24685656       0.15329389       0.33435502       0.04425087       0.01042210       0.06022905
C       10.46449220      16.22712274      11.13773011      -2.85712723      -0.47086537       0.63113605       0.13018552       0.60760034      -1.36351887
H       10.39477482      15.55323833      12.01806788      -0.20899105       0.15830117      -0.45180652       0.04590263       0.06237542      -0.01190725
H        9.51800357      16.91983828      11.08959747       1.91672393      -0.91581794       0.35646558       0.26911964      -0.02557830      -0.04874588
H       11.41603102      16.68442689      11.19766894       0.94492714       1.19428699       0.05572783      -0.19585607      -0.05437712       0.14741015
H       11.26843085      14.78897638       9.81636826       0.12968932       0.39295169      -0.12056834       0.04861890       0.20018788       0.08311721
H        9.61901505      14.81591340       9.81973343       0.23526033       0.38181679       0.17548342       0.22819575       0.14895963       0.07637491
N       15.83940150      24.08043677       3.72448037       0.44916492       0.48781478      -1.03272436      -1.35343650       0.93638184      -0.90100257
C       16.21782086      22.62725735       4.02135523      -2.08117291       1.17430189       2.03516812      -0.06564725       0.59198208       0.89313178
H       16.91954692      22.37123629       3.26488463       0.34357785      -0.81508385      -0.97828893      -0.07832544      -0.05030318       0.00676611
H       15.15039709      22.19680527       4.02842707       1.92014350      -0.48595902      -0.10768427       0.12745715      -0.11465421       0.00289183
H       16.75703486      22.54798926       5.04676135      -1.03594855       0.25167674      -1.41051301       0.08320639      -0.23784184       0.23354516
C       17.03240470      24.98792323       3.80448207      -0.29804402       0.08349454      -1.14651427      -0.25088312       0.18882287      -0.79514932
H       17.49390779      24.90051500       4.78639599       0.19265196      -0.26264827      -0.02121535       0.06476393       0.08984025      -0.22917121
H       16.70492119      26.01105340       3.65150522      -0.31645951       0.27981034       0.06045428       0.14959408       0.29586416       0.00020148
H       17.67772421      24.77937878       2.92704429       0.02176763      -0.25806029       0.64433990       0.09294439      -0.29973986      -0.13916567
H       15.11920178      24.44754058       4.35353866      -0.24192848      -0.14985878       0.45701868      -0.03718053      -0.19904997       0.23092686
H       15.35698652      24.17080362       2.74032579       0.85139761      -0.34610444       1.17041241      -0.07182737      -0.14727933      -0.10928809
Pb       6.45529851      20.56161302       7.12197944      -0.27330377      -0.07157390      -0.06647727      -2.81753516      -0.97276934       0.17042691
Pb      13.00585435      20.15889644       7.09343258      -0.06569668      -0.04514203      -0.50063733       3.64910169       0.00095431       1.70575335
Pb       6.50628629      20.50600661       0.65054882      -0.16336824       0.04695329      -0.08735250       3.75376811      -1.78228855      -0.41663114
Pb      13.12304651      19.64251950       0.07177989       0.22582350      -0.00653271       0.04485109       2.02761779       1.80434685      -1.28043920
I        9.52689611      20.00309153       6.72438761       0.10259557       0.00683742       0.04063733      -0.47936296       1.29723004      -1.37780607
I       15.90547542      19.57424749       6.53801334       0.18327474       0.09841886       0.15798211      -1.50576541       0.78231143      -0.80269690
I       13.22377552      16.70045222       6.53624321       0.04844045      -0.06699634      -0.00135360       2.08235451       0.60168357       1.12835874
I       13.00680221      23.78689896       7.37738305      -0.04641239      -0.13766193      -0.08736698      -1.91760010       0.49198133      -1.50114148
I       16.37771946      19.78623204       0.27614406       0.16404733      -0.00241428      -0.08911651       0.68028114       1.41160980       1.96140008
I        9.59818606      20.31947011      13.17937881       0.19359015      -0.04215661      -0.00533456       0.70330651       1.76828481       0.56412390
I       13.02550303      23.01107051      14.31993700       0.08326168       0.02953195      -0.11231344       0.77404504      -0.50293234      -1.07286099
I       13.52742871      16.60397285       0.17975042      -0.10099880       0.09411885      -0.13355363      -0.18879113       0.40295199       0.06416785
I       18.99572258      20.40729869      10.37391827       0.16249986      -0.02312995       0.03695904       4.08506508      -1.39603449       0.44335786
I        6.25311546      20.23672918       3.69558852       0.25804252       0.04028022       0.08919327       0.45715789       0.09740671       0.32759375
I       12.93041423      19.60230945       3.19626724      -0.04954190       0.07140411      -0.10019618       1.66787900      -1.36475485      -0.74685813
I       12.77969733      19.94854315      10.01150384       0.03441621       0.00133282       0.45446526      -2.02861233      -2.07321567      -1.21535289
N       16.55728652      15.49454592      17.10285412       0.32233879       1.03721305      -0.66497889       0.73962981       0.88424036       0.98745571
C       17.57233246      16.55766758      16.64488917      -1.83647051       2.07189882       1.32350578       0.23591382       1.33309979       0.23531201
H       18.11083880      16.97295446      17.53999380      -0.44099126      -0.43295072      -0.53793030       0.02912925       0.05038915       0.13635359
H       16.95644151      17.44573512      16.19731941       0.89377469      -1.48777566       0.68228615      -0.25403820      -0.14784293      -0.04882090
H       18.27829616      16.24700132      15.91256689       0.51209600      -0.83443478      -0.69329105       0.30268415      -0.10249511      -0.19928245
C       15.50196443      16.12482968      18.00419530       1.69808030       0.52784250      -0.47308528       0.93907667      -0.48175594       0.73226781
H       16.05786682      16.66900687      18.79901234      -0.34044334      -0.11120625      -0.37308203       0.01017894       0.01807124       0.05919984
H       14.91460204      15.36572516      18.44202879      -0.79106483      -1.08630046       0.53169022      -0.21179101       0.04511760       0.03039973
H       14.88369607      16.79115559      17.42218678      -0.16033122       0.43086442      -0.31973792      -0.08370828      -0.03063183      -0.01793229
H       16.99708935      14.72821560      17.69379740       0.02757621       0.23494391      -0.62081827       0.08914063      -0.00502844       0.20955902
H       16.16643042      15.12462738      16.19576240       0.02326768      -0.18877476       0.89510011      -0.28812987       0.08658824      -0.08754545
N       10.37072391      22.79901533      23.00814083      -1.12100500       0.90077811       0.05372928       1.25534828       0.44231084       0.30746746
C        8.86839824      22.70198226      23.07521616       0.75058972       2.28394466      -1.05748300       0.99193424      -1.10190567       0.47960865
H        8.46352243      23.51312546      23.64770777       0.09245433       0.43398952       1.10726425      -0.03321628      -0.17900425      -0.12347097
H        8.58996414      21.77071446      23.44421552      -0.56073640      -1.74032549       0.54823385      -0.06034857       0.08679210       0.38124619
H        8.47470093      22.99191180      22.09864531       0.04091193      -0.76251959      -0.38691181       0.14450920      -0.06441030       0.30914809
C       11.07272094      22.87006907      24.30396057       0.98914063      -1.27831264       1.10116960      -0.14926930      -0.51536274      -0.14758605
H       12.07209902      23.29622985      24.11377445      -0.12056855      -0.07802572       0.10016161      -0.03348013       0.21132327       0.25414020
H       11.18940110      21.82284417      24.66067234      -0.07606420       0.50099550       0.11456015      -0.17368017       0.30626168       0.07642438
H       10.58764337      23.48725883      25.10245694      -0.19278187      -0.28244217      -0.93122863      -0.07125828      -0.04263755       0.38088462
H       10.63260648      23.69905130      22.60065148      -0.27951472       0.18400108      -0.81507216      -0.04641818      -0.11228680      -0.27601942
H       10.62924784      22.03874494      22.34524959       0.55565919       0.01991430       0.17306706      -0.06163010       0.19069585       0.10118947
N        9.26937263      16.94813867      23.35186670       1.01967113      -0.82099459       1.18743462      -0.47739472      -0.43338902      -0.05720187
C       10.08519155      15.95633024      24.19459396      -0.48174767       0.15805172       0.09790617      -0.58841779      -0.73631840      -0.48365197
H        9.38167780      15.09979790      24.34645139       0.78777796       0.41883135       0.11016793       0.15037517      -0.28886743      -0.23385521
H       10.41848989      16.43595424      25.14184565      -0.51016414      -0.18371734      -0.40001674      -0.15213653       0.03450158       0.02029207
H       10.98301372      15.68226453      23.64339309       0.05615124      -0.18157658      -0.25949743      -0.12932595      -0.04259601      -0.10360083
C        9.88479508      18.29213086      23.16225119      -1.16728880       0.14102495       0.89596233       0.15977700      -0.10009214       0.52250809
H        9.67836185      18.79469391      24.11744465       0.49632737       0.29497622      -0.23062708      -0.07965557       0.12876307      -0.17926062