400
Lattice="25.573979777755376 0.03875241610736651 0.14339888759968317 -0.025255840741628646 25.47116564681032 -0.03423914587850407 0.17906356666903114 0.050354046130279266 25.58198405687076" Properties=species:S:1:pos:R:3:forces:R:3:momenta:R:3 energy=-1324.2191162109375 stress="0.0001789695379557088 1.5553536286461167e-05 -1.1776523933804128e-05 1.5553536286461167e-05 0.00024096059496514496 -0.00011083158460678533 -1.1776523933804128e-05 -0.00011083158460678533 0.000698357354849577" pbc="T T T"
Cs       8.89462288       9.40856903       3.44934866       0.24183507       0.08458700      -0.21008849       3.79169640       1.08873142      -2.50307135
Cs       3.47347810      16.37574575       9.84693639      -0.04662535      -0.05919115      -0.03538316      -0.93746786       0.28175811      -0.52931810
Cs       4.27024849       9.92678928       9.45026413      -0.15940388      -0.05832490       0.00173902      -0.22466932       0.64809297      -1.41284899
Cs       9.81113135      15.92105855       3.11800778      -0.01809091       0.04728673       0.02065467      -0.07298074       1.83005969       0.62552335
Pb       0.62999453      12.82018815       6.56685888       0.00117046      -0.12537905      -0.12586507       0.00827493      -0.85155877      -2.68882872
Pb       6.87748178      12.67150663       6.51182294      -0.05715177       0.40833834       0.07993034       0.52898961       1.51013552      -3.54906196
Pb       0.42079018      12.77962556       0.11732121       0.03637342       0.30097882       0.27283176       2.86119733      -0.72411115      -2.25285004
Pb       6.52405993      12.61884231       0.17272549       0.16671447      -0.03628623      -0.21289483      -0.92914604      -0.24070149       0.93494407
I        3.67209587      13.60047744       7.19573998      -0.02805060      -0.10835268      -0.06690337      -1.19604197      -0.11017501      -0.98483462
I       10.01467544      12.34139270       6.27227509      -0.19292587      -0.09538327       0.01293253      -1.53470570       4.60483174      -3.29666020
I        6.20626780       9.73131240       5.90139984      -0.27917647      -0.11421496       0.04075801       1.46215486      -0.03282390       2.17565569
I        7.15647068      15.89790858       6.71068238       0.05916674       0.15036886       0.07737623      -1.21828925      -0.34867158      -1.42618160
I        9.67194123      11.77666835       0.35812361       0.18429133       0.02367920      -0.06256464       3.46951068       0.66491216      -2.28694983
I        3.30926812      13.51403608      12.57035917       0.19292479      -0.10394163       0.01096522      -3.42625558      -2.33215511       0.91890910
I        6.62384188      16.01999822      12.08737669       0.07669438      -0.10325024      -0.08560541       1.05925994       2.03492885      -0.69351222
I        5.80191733       9.63910948       0.91768604      -0.00862192      -0.14243410      -0.07640958       0.81102522      -1.14129196       0.93730198
I       12.60796569      13.01108818       9.70559680      -0.00966884       0.09134637      -0.01279266       3.42677121       1.20043497      -3.53783825
I        1.43539513      12.36695294       3.48503889       0.07661968       0.08004883      -0.22355471       2.92033095      -1.67857062       2.06709469
I        7.13817944      13.20590390       3.28671435      -0.21117721       0.05803820       0.08061121       2.26748429      -0.76236886      -0.72666375
I        7.06368480      12.50393334       9.84358788       0.08836544      -0.08862959      -0.10837599       1.20125752      -0.99661893       0.60808098
Cs       9.69092939       9.67467799      16.02570085      -0.05441449      -0.11159814      -0.01157460       0.76931678       1.76735526      -1.45458399
Cs       3.69190536      16.43913761      22.67874953      -0.19855633      -0.21884209      -0.07399781      -1.86000390       0.88840774       1.70869315
Cs       3.44863259      10.09604954      22.41143956       0.10509247      -0.03523950      -0.02008639       4.83340733       1.70133049      -2.76892664
Cs       9.76234381      15.72305078      15.99418132       0.04538254       0.16084159       0.07113915       1.96714709      -0.37411546      -0.90623603
Pb       0.37587735      13.37642024      19.69269308      -0.03193507      -0.22582376      -0.34124846       0.05350636      -0.29861387       2.00212180
Pb       6.76824370      12.72958851      19.22698279      -0.10204424      -0.07992484       0.06367246      -0.33402777       3.62465097      -0.59042687
Pb      -0.14472770      12.81298859      13.13360468       0.94141552       0.06315780      -0.13634911      -2.75077951      -0.49864980       0.58785975
Pb       6.61604752      12.96171885      13.02874023      -0.09042824      -0.08217950      -0.02754903       1.61761912      -0.85111090      -4.66034043
I        3.62149103      13.47312284      19.51170766      -0.14039202      -0.07198731       0.07575323      -0.86438955       2.63392977      -2.68266673
I        9.93408409      12.64796271      18.47973482      -0.46549794      -0.10677531       0.03143750      -0.01214816      -3.64011523       0.42831071
I        6.49855504       9.58526918      18.49983823      -0.00507190       0.12282093       0.08851221       0.94551918      -1.53746505       3.66566721
I        6.75636269      15.97735552      20.12025798       0.19395035      -0.00579425       0.07452972       4.74397205       1.44052244       0.92176208
I        9.86950222      12.85623620      13.55152882      -0.02365667      -0.08549449      -0.15381552       0.63225780      -1.08868932       1.06864511
I        3.67166944      13.30440869      24.75957246      -0.11130227      -0.00435489       0.10509366      -0.81651392      -0.58923469       2.44203690
I        7.41965733      15.94663779      25.27517861      -0.15668085      -0.19357621       0.05959610       0.77408154      -0.21530398      -0.24771595
I        6.36165622       9.72815625      13.50079802       0.11959839      -0.06505968      -0.18016178      -0.46760742      -0.88478626       1.39498431
I       12.74185632      13.16057944      22.40198838      -0.08852833      -0.05684561       0.09236425       1.39928526      -1.35844784       2.29670369
I       -0.01364597      12.83427328      16.20835289      -0.06909604      -0.16983609       0.26039785       1.74354042       2.97945227       1.54272599
I        6.52427361      13.69640760      16.09503828      -0.13496628      -0.08198495       0.22819719      -2.37099149      -0.73293009       0.14148097
I        7.13439403      11.64911118      22.64853756       0.00789714       0.15716710      -0.18654031       0.05779569      -0.90729472      -1.66330438
Cs      16.30554536      14.96936279       3.05177479      -0.11885768       0.25763236      -0.00774489      -0.19468177      -0.04147038      -0.29302871
Cs       9.27954086      22.10450178       9.92412377       0.07043626       0.22218260       0.22459340       0.45684710      -4.44871881       2.38096896
Cs       9.71696155      16.29085759       9.71726958       0.04907333      -0.07937733      -0.09272693       1.29488534       0.32104991       4.24309804
Cs      15.15332769      21.65894721       3.29649648       0.15080999       0.16858687       0.01244882       1.57686202      -1.86919850      -2.56134450
Pb       6.51319631      19.31324226       6.56505473       0.03175265      -0.38439864      -0.09370335       2.68468215      -3.28041096       2.48948826
Pb      12.99181090      19.30019500       6.80013934      -0.09835846      -0.32479356      -0.10178763      -1.40216163      -3.02270081       2.85766336
Pb       6.44312091      19.07694633      -0.30164386       0.07223498      -0.16323919       0.23685211       2.76505415      -1.58377582      -0.23438415
Pb      12.83506095      19.10457219       0.11315611      -0.01901943      -0.17477484      -0.18175870       1.09329501      -0.65022714      -4.41594956
I        9.64353436      19.68199174       7.44691448       0.09836820      -0.25515831      -0.20046928       0.51196557      -2.10212452      -0.31133493
I       16.20992493      18.19959566       6.31135806      -0.21324958       0.03782915      -0.05681691       1.74002483      -5.77520555      -1.54397779
I       12.04277172      16.09422527       6.42350844       0.10871827      -0.14683174       0.12797824      -1.78766051       1.39476061       3.27072652
I       13.39905455      22.34004180       6.69377648       0.06923186       0.10893814      -0.04342825      -0.09418485      -0.62976301      -2.99255695
I       15.97390304      17.85821072       0.57842108      -0.00070613       0.24953355      -0.08432859      -0.95756983      -1.67994369      -2.34931906
I        9.50059408      19.08659322      12.80980261       0.37127692       0.06828394      -0.21981302       0.32601894       0.32045670       2.34150962
I       12.78267851      22.41550646      13.09809030      -0.03195278      -0.31839191      -0.05323900       3.21739978      -1.63591725      -2.22823312
I       12.09310399      15.69795593      -0.04022341      -0.01927936       0.21309010       0.03081408      -1.64973645      -0.32919531       0.44522881
I       18.79292606      19.35953483       9.81890836      -0.22188081       0.15135197      -0.25752655      -2.64331400      -1.13087817       1.61166294
I        6.73218685      18.42935919       3.07650654      -0.02320085      -0.03865902       0.08261009       0.90985095      -0.25083411       1.23064844
I       12.89518848      18.68904717       3.23917993      -0.03712172      -0.12127626       0.13081032      -0.07959283       2.65458766       0.79457090
I       13.60530016      19.17488059       9.85795756      -0.02921633       0.01924804      -0.05466197       1.57814397      -2.66690215      -0.92969291
Cs      16.39333945      15.72197976      15.74516711      -0.13149884       0.16309617       0.10386337      -1.16188467       3.11720467       3.35373285
Cs      10.21077959      22.86579126      21.92396630       0.02952210      -0.13005925       0.05646050       0.97294761       1.85139274      -1.56483504
Cs       9.77804825      15.89017062      22.57826160       0.19191170      -0.02174404      -0.17227600       0.47964265       2.68229299      -1.32722652
Cs      15.82306586      21.56294694      16.48405859      -0.07549481       0.15475636       0.01709341       0.06730559       0.01207025      -0.90289563
Pb       6.17142320      19.03387954      19.48209534       0.05757536      -0.10785425      -0.38241252      -4.05278515       3.09722249       2.46620316
Pb      12.42936474      19.30919029      19.23290738       0.14550632       0.01897414       0.07456981       1.51726465       1.78881676      -0.48722729
Pb       6.58423163      18.91577277      12.87712157      -0.59955622       0.25885355       0.38870311       1.73131135       2.38799973      -0.49406378
Pb      12.83716589      19.17635581      12.92196481      -0.10498332      -0.02234615       0.10295965      -1.07638913       0.61392747      -5.32323888
I        9.43055814      19.91985572      19.58041139       0.02489883      -0.05363035       0.16432207      -1.63850082       1.06105102       0.65763245
I       16.37064977      18.36104590      18.69930421      -0.13762230       0.04843266      -0.00938350      -0.56620538      -0.06232541      -1.16116952
I       12.29681089      16.19718565      19.14718326      -0.03469369      -0.07610346       0.02453735       4.48112466      -0.28411706       0.60260633
I       13.65256498      22.45926792      19.86699090      -0.16925191      -0.14512541      -0.28179488      -1.42334614       4.41322644       0.36969558
I       15.78895888      19.31374429      13.60407741       0.25601196      -0.04777007       0.00275918       0.18957039       1.81144778       0.44791652
I        9.79803915      19.47009204      24.64138157      -0.05491372       0.01101053       0.03719475      -2.17283281      -2.18173836       1.83813022
I       13.04554263      22.21047495      25.96934942       0.07020324      -0.00596365      -0.06929315       1.96816436       0.74386159       1.17361233
I       13.64755047      15.92004848      13.15462942      -0.17709527       0.40243928      -0.07095867      -1.70193714       0.98469051       2.98452396
I       19.79798524      18.67774403      22.65971550      -0.01212833       0.01433998       0.27889832       1.68150121       2.72416922       0.18798334
I        6.67653038      18.05178076      16.10294216      -0.04409911       0.24524289       0.00390779      -0.64207765       3.47012110       1.09373185
I       11.74257129      19.24158041      16.16718984       0.16672978       0.02159430      -0.03279625      -1.74330439      -0.48403113       2.07653023
I       13.40715560      19.03246934      22.41302932       0.02483750      -0.09047477       0.00737203       1.89498671      -2.00720681      -1.85942842
N        9.85383207      22.64284637       3.31476373      -0.17533475      -1.43571884       0.59965885       0.00192706       0.70228699      -0.53116450
C       10.99684352      21.84432241       3.92033852      -2.16833367      -1.21003052       0.31813563       0.25821294      -0.15903038      -0.14174581
H       11.24206559      21.11783409       3.10460756       0.38344114       0.31322694       0.98361023      -0.07150224       0.45363989      -0.00478520
H       10.65854044      21.38310874       4.92872264      -0.03078788       0.12047150      -1.75125641       0.07485642       0.10255400      -0.13942223
H       11.72756073      22.50774047       4.28928734       1.45412250       1.09439415      -0.30101242      -0.06133949       0.14842726       0.00978913
C        8.70169026      21.72265122       2.91390871       0.29539929       1.47630444       2.14406160      -0.11892300       0.01264650       0.56255535
H        9.13990619      21.04795904       2.24549578       0.23833847      -1.12666412      -1.50054001      -0.07055359      -0.44320856      -0.24442533
H        7.90137164      22.37556265       2.55476108      -0.09837292      -0.34706031      -0.22970265      -0.19013144       0.23397704       0.02472844
H        8.44432549      21.18941353       3.83930833      -0.33283026       0.00739504      -0.20507643      -0.12457724       0.25011574      -0.01407427
H       10.14700816      23.07476945       2.43848701       0.31343591       0.74277974       0.04594093      -0.18523841       0.01363073       0.08344532
H        9.52181556      23.29495902       4.04050166       0.03659928       0.59598397      -0.19150342       0.20632354      -0.01104772      -0.15917920
Cs       3.46407648       3.64884324       9.31964296       0.10532349      -0.17926073      -0.12486072       0.10884103       0.00507485       2.18611428
Cs       3.15988451      22.01989370       9.90022413       0.20194123       0.07703173      -0.14219599       3.42881213       0.19943214      -1.19945379
Cs       9.67824913       3.21737396       3.22002524       0.20923719       0.05491554       0.01500194       1.17200253      -3.39400732      -1.26082574
Pb       0.27097385      -0.10147989       6.33043807      -0.10531213       0.14839410      -0.16023717      -1.69286689      -4.52131696       0.19212811
Pb       6.76873726       0.09953777       6.94432089      -0.20987791       0.04883234       0.09838966       1.32423635      -1.49278863      -1.39812744
Pb      -0.11584830       0.20594991      -0.13021240      -0.07959935      -0.18445286      -0.06508950      -0.87534641      -2.29926039      -2.16754743
Pb       6.83761247      -0.10742604       0.04551792      -0.27361791       0.08225262      -0.16639463      -1.05967255       2.12549435      -1.76416401
I        3.38720785       0.11830203       7.23339775       0.34244395       0.10104729       0.00846252       0.78388079      -2.60415593      -1.29180645
I        9.70414228      24.83089335       6.34556606      -0.34386383      -0.15024500      -0.04623072      -1.37090410       3.01256971      -0.07848028
I        5.95018617      22.25007958       6.62557414       0.00113414       0.34746642      -0.01199863       2.18404189      -0.84632538      -0.22609330
I        7.06520577       3.35288494       6.90836947       0.11358220      -0.19102923       0.13804127       1.96083213      -2.98211940       0.03159173
I        9.73802088      24.71865374      -0.45956038      -0.36021540      -0.04874338       0.06687470       1.91562878      -1.66528675       0.12621748
I        3.30070199       0.78846402      12.24045653      -0.09826469      -0.06962687      -0.00457279      -1.30662037      -1.90357194       0.10609484
I        6.62659255       3.36281341      11.86170427      -0.04307434       0.12354236       0.29790997       2.44123762       0.52713669      -3.26710955
I        5.69208109      21.92313904       0.41143878       0.11648263       0.40943360      -0.21805970      -1.76965890       1.48533985       0.96016814
I       12.01264585      -0.20060831       9.98657350      -0.05384283       0.07724305      -0.08825225       2.34132926      -1.99607623       0.34277956
I       -0.20757675      25.08440514       2.98479427       0.04471786      -0.01618626      -0.05036683       1.16813242      -2.06789031      -0.23826488
I        7.36189610       0.57397917       3.06761539      -0.16022710      -0.19151930       0.00122224       6.01948561       0.66079786       1.95851777
I        7.18707183      25.16967739      10.19555021      -0.02438920      -0.03664532      -0.32841660      -0.12885534       1.95756218      -4.09614204
Cs       9.05099972      21.94375837      16.41140615      -0.06638604       0.08479744      -0.16147581      -4.65282964      -0.78428396      -2.78824479
Cs       3.68242396       3.28322177      22.23225487      -0.04256005      -0.12866840       0.08187351      -0.35731499       1.94151044      -1.37907471
Cs       3.41937850      22.58362449      22.38549419      -0.20097660       0.12916413       0.06582637      -3.04469292      -1.15184303       2.27899728
Cs       9.69585082       3.05999559      16.44143575      -0.08577867       0.05811602       0.05849586       0.98855405      -1.30099252       1.09148511
Pb       0.03148982      -0.02291607      18.79854521       0.26538170       0.21712830       0.32915172       0.37445063       1.03452006       0.64026102
Pb       6.21110339       0.01898353      19.35774257       0.27134665      -0.05628523      -0.02047959       1.52224622      -0.61464964       1.13432999
Pb       0.14884570      -0.11774737      12.67315733      -0.06581675       0.22862519       0.13579924      -0.52731181       1.27298923      -0.36716845
Pb       6.26513275       0.02920521      13.21958900      -0.18870915      -0.04349595       0.03059874       2.87182480      -0.72587432      -0.04543568
I        3.23894074       0.30656982      19.86899847      -0.26641802       0.12360889       0.06121949      -0.54732241       2.99243229      -3.32420001
I        9.40616877      25.29527458      19.26117919       0.25973804       0.03298739      -0.20711082      -1.83237187      -1.20757711      -0.90027069
I        5.94083112      22.44244963      18.50010670      -0.10201443      -0.26176381       0.00209433      -1.06928597       0.36514699       0.11780669
I        6.94858545       3.15438254      19.75629751       0.10153204       0.22903312       0.20819083      -1.81719938      -2.91671850      -2.58350563
I        9.08514935      25.50548089      14.26441883       0.53968506      -0.13008346      -0.03553711       1.32345790      -1.30530298       0.90977324
I        3.22700734       0.14589187      24.71784003       0.00639009       0.19023716       0.10280033       0.35684585      -0.35337829      -1.02939263
I        6.96790994       3.30256810      24.54397387       0.08413839      -0.11673876       0.10482943       0.49076175       2.74836140       0.54760660
I        5.97227951      22.38676715      13.92191642       0.01897410       0.02870692      -0.10941022      -1.85299258       2.44998061       1.84341403
I       12.91837070       0.46340515      22.14071155      -0.04417071       0.14610340       0.22779369       1.89415531      -1.34162762      -3.28722472
I        1.01677430      25.16253952      15.86645511       0.01675653      -0.25919354      -0.06746448      -1.69918754      -1.07787890       1.37754358
I        5.82854129       1.14277603      16.42523195       0.07755290      -0.08312024      -0.21488434      -1.49786296      -3.03945186      -0.43957076
I        6.60474831      24.35814580      22.47846634       0.16330691       0.16194855       0.04768987      -1.23868203       0.69532372      -0.69374021
Cs      15.95448314       2.95521084       3.30271813       0.01111671      -0.14392801       0.09664148      -1.26507547       2.33276083      -0.62605828
Cs      10.25634084      10.13256532      10.09137527      -0.08484346      -0.15510123      -0.00703855       6.27052340       0.54400923      -0.90431782
Cs       9.66821519       3.13654050       9.99462176       0.15954735       0.00017278      -0.02715245       1.21214634      -0.56247773       3.25258348
N       15.63592279       8.75037180       3.57265150       2.02222216      -0.39090468       1.90055609      -0.24641812      -0.18183549      -1.23200998
C       15.40024940      10.00462322       2.81370865       1.19462356      -0.21501575      -0.39058595       0.25434405      -0.26902787      -0.16329447
H       15.95375280      10.80372548       3.35605352      -0.54135941      -0.11941252      -0.21539895       0.00429365      -0.22156302       0.12621147
H       14.31558691      10.10600645       2.81490026      -0.09997289       0.58205807      -0.37940928       0.14591683       0.07932344       0.16159831
H       15.90463738       9.89246861       1.81588449      -0.77638754       0.07354103       0.51059573       0.30987558       0.07030447      -0.02072141
C       16.98956611       8.07041941       3.39434759       0.20462686       0.80162623       0.18103546      -0.97639353       0.10700671       0.15257446
H       17.06670729       7.77511818       2.36853561       0.11042973      -0.20907383      -0.79908784       0.12130805       0.24549912       0.10475656
H       17.08440777       7.20305231       4.03202190      -0.44438540      -0.41033179       0.34736530      -0.21524569       0.05086207      -0.06295046
H       17.83782500       8.72816533       3.69323084      -0.65788813       0.14212511      -0.24194632       0.01122357       0.08958610       0.20930765
H       14.92178179       8.03584416       3.44750696      -0.61851574      -0.20189198      -0.17785278       0.06909086      -0.02986509       0.08014271
H       15.66648823       8.98659566       4.59425833      -0.61457354      -0.12729094      -0.52664969       0.14241331       0.08467039       0.11077663
Pb       7.03793895       6.61250256       6.47003039       0.03014705      -0.06861023       0.03761280       0.54266784      -0.01142857      -0.04417240
Pb      12.97560758       6.16058050       6.80660029       0.13437392       0.54847134       0.24448078       3.22595270      -2.89884703      -2.26401991
Pb       6.34726397       6.50665406      -0.36932398       0.24411081      -0.19656641       0.48581497       0.34960013       0.05504986      -1.08588185
Pb      12.62233731       6.28351604       0.34020211       0.48413712       0.04673557      -0.04543074       0.63652098      -2.22749927       2.13191019
I        9.90631105       7.96046095       6.85905842      -0.04502424      -0.23857275      -0.09332496      -1.88369597      -0.46139753       0.15548718
I       16.06452404       6.01352477       7.59611944       0.05439762      -0.01312393      -0.19118099       1.37282619       0.31590677      -0.24907059
I       12.07104755       3.29694624       6.36245054      -0.33032101       0.04212423       0.04618336       0.84847559      -0.27216220       0.23670581
I       13.33841497       9.33200671       6.90408783       0.21156469       0.39320142      -0.01859422      -0.70967289      -0.20566758      -0.05599907
I       16.19365795       5.31592491       0.60351239      -0.11824588       0.08120045      -0.11801416       2.08395356       0.81751902       0.31429047
I        9.88908610       6.77082434      13.12568479      -0.52997023       0.18014306       0.01924689       1.52396987       1.30277419      -3.20866664
I       13.62408001       9.69964723      12.81276212      -0.10674090       0.00320692      -0.02372305       0.30800068       2.48901441      -0.11417740
I       12.01382647       3.09379525       0.18289365      -0.12659019       0.53311118      -0.03474125      -0.67996832      -0.85686943      -0.80944937
I       19.54130301       7.54903644       9.74938554      -0.06017040      -0.11274322       0.09039554       2.94037117      -0.41425925       1.79687680
I        7.30787639       5.97469867       3.26961599      -0.12362961       0.08517340      -0.07049363       0.43533369      -1.83395526       0.64046689
I       12.43471311       6.09349745       3.68962508       0.10300103       0.13355078      -0.36630104       1.85632423      -0.75165246      -1.93899448
I       12.26094510       6.30997574      10.03913818      -0.06680709      -0.08093808      -0.38775825      -0.70777855      -0.22022146      -0.99610384
Cs      15.80518406       3.42479648      15.68836160      -0.01396604      -0.00541678      -0.06058945       2.25084079      -1.29573672      -4.08309600
Cs      10.66222014       9.23749229      22.29689218      -0.08914357       0.17171655       0.10700662      -3.07576663      -1.84442963       0.67528646
Cs      10.28690195       3.32929779      22.23244280      -0.10093392       0.10170113      -0.04783257      -0.43655081      -3.31886852       0.40956750
N       16.12644381       8.92384342      17.33384850       0.85704649       0.21782757      -0.64337145      -0.69320860      -0.14053683       0.53327540
C       16.30876799       8.06431005      16.14250188       1.02373033      -0.98262896      -0.11719734      -0.83253018      -0.20519111      -0.21924905
H       15.63577155       8.39101920      15.38988189      -0.65592399       0.51212468      -0.94740969      -0.13075739       0.02516172      -0.08726485
H       16.04920844       7.02655466      16.39706634       0.08279482       0.02965494       0.08895577       0.09356605      -0.03354997      -0.01729931
H       17.35246577       8.08830919      15.76002180      -0.43118744       0.23079386       0.34914443      -0.00035174      -0.27160655       0.05276462
C       16.45927134      10.34707349      17.03837989       0.20608769       1.36495312       0.91423726      -0.47208107      -1.22781631       0.26458239
H       17.43045821      10.31670046      16.59238950       0.72316239      -0.03865342      -0.96020431      -0.07808326      -0.04019308       0.00783719
H       16.69799972      10.94807748      17.96968045      -0.84650483      -0.67209509      -0.54063152      -0.20886438      -0.11175523      -0.13774856
H       15.73826707      10.91172960      16.38340950       0.34391620      -0.94033338       0.56749509       0.15478449       0.26060160       0.04828189
H       16.78231590       8.56384255      18.07134474      -0.68777699       0.22603357       0.05565023      -0.10914830       0.31740268      -0.12270650
H       15.14879544       8.79372957      17.57579155      -0.56969082       0.11779849       0.92106559       0.05942715      -0.12974415      -0.18122223
Pb       6.27569830       6.24521120      19.48524940       0.30156687       0.11033361      -0.35140671      -3.79502266       3.93228760      -2.88273928
Pb      13.18526899       6.46309447      19.39827803      -0.15441343       0.04115275       0.11244531      -0.44126022       3.53833886      -0.82131568
Pb       6.42541148       6.41332531      13.01220355       0.08406654      -0.13467524      -0.25015102       1.23713977       0.96599441       0.34223026
Pb      12.91186177       6.60717331      12.94996397       0.18242666      -0.16974355       0.26899398       1.26060860       2.09172784      -1.89929155
I        9.71623460       6.72286779      19.68372606       0.13184393      -0.14649930      -0.01653157       0.37395961       2.28507280      -1.32008780
I       16.26446146       5.98284690      19.27431922       0.17357524      -0.17588489      -0.05889914      -0.89620865       0.66356396       0.55244227
I       13.00779953       3.06632259      18.38941541      -0.17811366       0.67612086       0.01927136      -3.05976153       2.30028133      -2.36500219
I       13.58094457       9.66832516      19.92127978      -0.12694902      -0.06313925      -0.14631955      -2.13019207       2.04214882      -2.69113775
I       16.08555696       5.81751629      12.45947733       0.23867846      -0.07051586       0.02445155      -1.98546119       2.09808386       3.07902793
I        9.99918759       6.86079069      25.19808675      -0.29145600       0.03000657      -0.04054906      -3.73265927       0.84595170      -1.57192583
I       13.79904974       9.13466101      24.75300968      -0.11354571       0.13055655       0.15986902      -3.65517993       1.48145287       0.88655213
I       12.26258646       3.47230010      13.62318794       0.05766130      -0.26701210      -0.05735594      -2.58648303      -3.24569353       1.44049824
I       18.70047427       6.73265385      22.41736028       0.10807472      -0.03341115       0.19038105       1.15232841      -2.09208537      -2.43635677
I        7.04425830       5.89945936      15.96465925      -0.05543931      -0.08497729       0.11310398      -1.53382572       1.73231901      -1.69925106
I       12.64004208       6.93691715      16.39516518      -0.02964478       0.07534622      -0.14789174       3.13162571       2.71918863      -2.61041672