360
Lattice="25.3196104085316 -0.01839023254991134 -0.0014188792804309893 -0.08879948905380175 25.33656834068035 0.057180573149673314 -0.07795200920660074 0.012060936788309915 25.656418282909502" Properties=species:S:1:pos:R:3:forces:R:3:momenta:R:3 energy=-1114.275634765625 stress="-0.00023734971182420853 8.041589899221437e-05 0.0001180364561150782 8.041589899221437e-05 0.0008425938431173565 0.0002595492696855217 0.0001180364561150782 0.0002595492696855217 0.0004707431362476201" pbc="T T T"
Cs       9.00011512       9.45735918       3.64807438      -0.00878240       0.12315712      -0.17722827       0.00149515       1.99541648      -1.09203214
Cs       3.69927875      15.79525527       9.47557847       0.02354279       0.13687382       0.08243294       2.61908791       0.87338033      -0.40976610
Cs       2.78474019       9.46623420       9.47000795       0.15694704       0.08515634      -0.06468675       0.66998204       0.93937754       2.40139764
Cs       9.07778506      15.93807783       3.17110255      -0.13698682       0.09516391      -0.18580106      -1.16577007       3.16117172      -0.55498784
Pb      -0.12212301      12.83664489       6.34666006       0.10216617       0.22864873       0.10813601      -0.60194527      -4.00279018       0.07869277
Pb       6.42838044      13.05628888       6.32158560      -0.45427302       0.08223591       0.14018785       3.31067921       2.89540049       0.11897781
Pb      -0.06860294      12.73755775      -0.23773483       0.07043096      -0.04874416       0.26956098      -3.74978065       1.49820165      -1.03787417
Pb       6.19157286      12.67920034      -0.11746961       0.10017251       0.36095280       0.48457920      -0.82023652      -2.67297183       2.26402273
I        3.03969818      13.37245620       6.71550104       0.06343299       0.06931870       0.02581249       4.39074402       2.33821749       3.32157904
I        9.35711949      12.54065757       6.35268430       0.30753702      -0.23032583      -0.09106911      -0.31231290       0.99016697      -4.64852471
I        5.66103112       9.82838894       6.03547905       0.00387060       0.00901747      -0.00913105       0.76171270       0.49551996      -0.22008688
I        6.90440594      16.20182931       6.96457865      -0.14603890      -0.03416019       0.02819939      -1.97030945      -1.61390658      -1.10581695
I        9.45372315      13.03775399       0.51462589      -0.23432876      -0.09850012      -0.05031602      -1.18289793      -0.03391615       1.78452629
I        2.95114230      13.61042336      12.57668446       0.35386965      -0.05798165      -0.07627253      -4.82158146      -0.78559085       0.00750022
I        7.42445972      15.78926168      13.35565047      -0.15848932      -0.00711577      -0.28717349      -1.18791776       1.05961116      -5.96639103
I        6.03332698       9.70768049       0.48065763      -0.05729872      -0.33478484      -0.00402277       2.29028929      -0.23296723      -2.74433513
I       12.14107834      13.13912223       9.55120251       0.03673826      -0.06756789       0.06207227       0.61433655      -4.12147738      -2.82206905
I        0.51034595      12.88017409       3.21897976      -0.08384802       0.01673863      -0.07199711       1.29177466       0.19151392       0.81306632
I        6.17998325      13.56091961       3.16422752      -0.14945572      -0.04142726       0.17996927      -1.88068369      -1.85533211       4.36662679
I        6.84426414      12.40978896       9.58595271      -0.17365815       0.18872013       0.18625268      -0.85342606       0.00578170      -0.89646184
Cs       9.59343807       9.47231147      16.24691791      -0.04080600       0.06848600      -0.00985061       6.38114622      -3.12948357       2.21895679
Cs       3.35805813      15.97395003      22.45287358      -0.01347952      -0.06985482       0.00164806      -4.38246535       0.19088398       0.26524221
Cs       3.08740151       9.76155802      22.70299123       0.02320295      -0.04485697      -0.07446401       1.15193423      -0.51110096      -0.42306887
Cs       8.87615920      15.90012003      16.58894503       0.19290417       0.04884656       0.22567178      -2.58727978      -2.25949416       2.13879930
Pb      -0.26225842      12.66894120      19.18784169       0.02769274       0.04507473      -0.10107338      -0.85872245       0.34644028       0.70096046
Pb       6.26234111      12.52833357      19.32144004      -0.02896406       0.09491227       0.03273922       0.61712172      -3.52475007       1.40136581
Pb       0.05984205      12.80323506      13.02999642      -0.25525893      -0.00227936      -0.24101626       0.12422918      -1.70516711      -0.74481542
Pb       6.46796922      12.64134354      13.10789221      -0.03118752      -0.13713249      -0.04291288      -0.53191536      -0.16261960      -1.68466023
I        2.90538779      12.92603134      19.98877774       0.15540770       0.11188395      -0.11775635       0.21777368      -1.07348786       0.00993127
I        9.59772098      12.33382926      19.14682677      -0.27801179      -0.11680091      -0.05843770      -3.50348714       3.44361382       3.96959992
I        5.61496238       9.57252732      19.47914699       0.02968295      -0.10134916       0.05412923      -0.93828185       0.71269034       3.00589492
I        6.96418491      15.83761194      19.97468738      -0.16203935       0.15695385      -0.05363417       0.61855697      -2.37550117       1.58918137
I        9.83574888      12.11523368      13.38570645      -0.55842247      -0.20811447       0.00800345       0.01012928      -1.48678391      -1.23188596
I        3.09349485      13.56761029      25.53691491      -0.26412081      -0.06896191      -0.05518922      -3.14083126       0.39272372      -0.67005621
I        6.52897321      15.96653006      25.04814012      -0.07888309       0.38561589       0.10662179      -0.04679860       4.61515929      -0.95466104
I        5.79405396       9.66039944      12.49233240       0.00376177      -0.11018465       0.07140978       1.13035943       2.72996766      -1.64598497
I       12.32511814      13.00400278      22.73854528      -0.13727872      -0.16455691       0.10333201      -0.27775098       2.30972100      -2.10532586
I        0.06381751      12.07488367      16.00952469       0.17465537       0.00362275       0.08077311       0.55784718       1.90756936      -0.30678933
I        5.71357501      11.62374687      16.06624570       0.30401843       0.16951647      -0.02998568       1.59973062      -1.13938975       1.30508970
I        6.40597534      12.49483265      22.66993686       0.10970905      -0.16946584      -0.78287565       1.23689332       1.39089631       1.04324953
Cs      15.72030832      15.43850885       2.86736087       0.06241788       0.08739433       0.09588253      -0.59009896      -1.31295204      -1.55353750
Cs       9.72214186      21.73372715      10.31240205      -0.03921918       0.11075916      -0.17641691      -3.02580165       6.48209305       1.66196545
Cs       9.24669373      15.46569575       9.87411542      -0.02899369       0.08124508       0.03377650       0.17064576      -1.15814980      -0.62454183
Cs      15.57365361      22.95045317       3.57723731      -0.11434080      -0.09925535      -0.15231512       0.94262624       0.72577777      -2.86215336
Pb       5.99326467      19.72676048       6.22025772      -0.02666786      -0.27770328       0.38073175      -1.64688500       1.88553764       4.37147844
Pb      12.20953509      18.81225600       6.29380166      -0.18708726       0.01155677       0.46338103      -3.18456812      -0.00326360       4.11155619
Pb       6.03060876      19.09703385       0.15262185      -0.10341232      -0.08227481       0.04115214       1.24997984      -2.56650760      -3.38938767
Pb      12.51694553      18.98323987       0.54306456       0.21439282       0.05859591      -0.16536115      -0.68767003      -2.49454217      -2.20787669
I        9.11783494      20.02039922       6.52836598      -0.08017058       0.10033032       0.03978762       1.53029236      -1.43639809       0.05919333
I       15.18274451      18.32351943       6.16636633       0.57486985      -0.12227382       0.07227561       1.34428474       1.52275945      -0.74316019
I       11.72632977      15.77838763       5.45676457       0.21631962       0.20670984       0.18074074      -0.84818717       2.09836400      -1.94950790
I       12.98744265      22.08262876       7.37759831      -0.01000707       0.12287943       0.07294424      -1.51861459      -2.55431710      -0.99272568
I       15.85629799      18.45857112       0.09087654      -0.08426918      -0.01630426       0.01840893       0.62540650      -0.44446983      -0.42649589
I        9.24791559      19.73531085      13.38092293      -0.04206083      -0.09848529      -0.11020237      -0.90182726       1.31003413       1.91271850
I       12.83528386      21.94161198      12.51474523       0.11041159      -0.01081572      -0.07159335      -1.88837218      -2.65312479      -1.93089151
I       12.45397265      15.82822528       0.97045949      -0.02561261      -0.09222203      -0.03399659       1.67059749       1.27702902      -0.55045206
I       18.14122837      19.47283356       9.63409782      -0.01481596      -0.00635794      -0.19315837       4.01409117       3.12770751       2.12931072
I        6.28846575      18.55221848       3.47597833       0.04069284       0.05552762      -0.29410325       3.19414435      -1.04426181       0.54223746
I       12.47352006      19.81850062       3.55754940      -0.03796636       0.24831686      -0.45004252       0.79258606      -3.21805427       1.38680524
I       12.13866960      18.02242178       9.77434402      -0.17690393       0.14102878      -0.14849351       1.30302967      -2.40676657       0.01968344
Cs      15.29605481      15.21880840      15.78106540       0.01960432      -0.00782247       0.06402389       0.66510341       0.17483094      -1.49689255
N        9.97916248      21.90554129      23.46633965      -0.66264998      -0.32566284       0.28929399       0.12028619      -0.48870201       0.43005871
C        8.57910019      21.97485629      22.92226410      -0.22307609      -0.65728174       0.56952665      -1.27159774      -0.38288310       0.13889497
H        8.43201199      22.94896465      22.45540240      -0.07823749       0.01679453      -0.19058693       0.19455665      -0.18813912       0.45379287
H        7.92318286      21.85527529      23.80573522      -0.06418606       0.15763560      -0.41039266       0.03704839       0.07971943       0.19316985
H        8.39203864      21.10861570      22.23879338       0.26448368       0.67433306       0.23339032       0.04158205       0.06017299       0.12876875
C       10.98489799      22.12193908      22.39354686       0.42630261      -0.52534089       0.23698496       0.26829190      -0.68290266       0.25091128
H       12.01876747      22.19188259      22.82972707      -0.74575316      -0.33439781      -0.31836232       0.02896838      -0.07411760       0.17279340
H       10.74871469      23.07021206      21.91868871      -0.09835447       0.25841884      -0.21591217      -0.12846343      -0.04109073       0.07254253
H       10.82614652      21.28587460      21.67089948       0.43145256       0.48857557       0.29564604       0.02791991       0.19694596       0.15242569
H       10.02731259      20.94220807      23.91357694       0.46042973       0.57745565      -0.12187703       0.07523041       0.02023438       0.04457382
H       10.03940142      22.60878774      24.25748636       0.18197360      -0.26424782      -0.45908286      -0.30713171       0.15523940      -0.23295666
Cs       9.46112231      15.83305788      22.79731774       0.17448383      -0.02109007      -0.00019685       1.47435825      -0.33051415       2.01934412
Cs      15.50219882      20.99185149      15.85565027      -0.02270243       0.15500016      -0.04289112      -0.54521380      -0.31721221       1.25991110
Pb       6.09498495      19.12693795      19.84333743      -0.13124454      -0.03923745      -0.18227429       2.54318871       1.66933320      -0.34697773
Pb      12.71358472      18.62698005      19.79733930       0.07108111       0.30901545      -0.53409504       1.86044113      -2.73181947       1.73286045
Pb       6.21296922      18.84412578      13.20379898      -0.06002897       0.09039084      -0.01651396      -1.71122212      -3.54443039       1.60337907
Pb      12.30068811      18.43496736      12.86882180       0.03389714       0.17269795       0.22421617      -3.59580960       2.14419477       3.07937438
I        9.60056392      19.00573900      19.56045639      -0.11820307       0.03314470       0.05647528       1.48332908      -1.93637326      -0.75448393
I       16.01069824      18.21177571      18.28984022      -0.11283593      -0.16951379       0.09448911      -1.28977996       0.86441909      -0.56335220
I       12.26750594      15.68517914      18.88161716      -0.13401624      -0.06885753      -0.13989674       2.73134672      -0.91193585      -1.23453351
I       13.75006508      21.81245593      19.35199415      -0.07922783      -0.00426654       0.19463325      -1.98849388      -2.33912591      -1.04472615
I       15.41972685      18.07924130      13.15633075       0.22286851      -0.00911144      -0.08698507       2.57204451      -1.24501566       0.79376574
I        9.39535359      19.29071878      25.75890205      -0.20476943      -0.02053164       0.05808100       2.99030571       2.05521534      -1.13339420
I       13.16476417      22.35221192      25.62779256       0.08537438      -0.29463802       0.07149737      -3.34968521      -0.84163507       0.79805068
I       12.08791740      15.27432896      13.25992204      -0.01420752       0.33771174       0.08900990      -0.57576579       1.53827325       1.90292974
I       18.72948525      18.77936435      22.10102838      -0.07431981       0.04849068       0.11780083       2.50423145      -2.26698297       0.16929784
I        5.89765019      19.24812660      16.57100069       0.19657668      -0.04470408       0.05418205       0.38652458      -0.61348494       0.37593207
I       12.19592911      18.84399444      16.11580537       0.00614696      -0.02318900       0.00590331      -1.54313940       2.88525674      -1.10407876
I       12.65151314      18.62669518      22.74323878       0.02450776      -0.12194303       0.37503247       0.58011667      -1.25000544      -0.37974343
Cs       8.93214979      22.55303869       3.38587835       0.08823258      -0.01118704       0.01831189      -0.19634363       2.49671980       0.39840067
Cs       4.07491793       3.32492600       9.97860618      -0.07204742      -0.05311522       0.07458172      -1.52539231      -1.18489473      -1.83411581
Cs       2.88583816      21.52099634      10.13808214       0.13600241       0.08780348      -0.16080122      -1.34608140      -3.23005566      -1.18649862
Cs       8.85990203       3.68348866       3.07174114       0.11726737      -0.04230705       0.27941036       0.19943351       1.61780511      -0.76127732
Pb      -0.26948774       0.23131060       6.64124592       0.17653291       0.08987594      -0.13959229      -3.57861734      -2.23717344       3.73599206
Pb       5.97462208       0.19701821       6.65987197       0.23390368      -0.00230970       0.23198030       2.29279356      -0.56770825       1.51856419
Pb       0.09734078       0.24510964       0.21310795       0.18995909      -0.06453595       0.06159216       1.14929364       0.60292563       3.68980244
Pb       6.40257996       0.21027023       0.53463867      -0.02731541       0.06208488      -0.41698718      -0.97511956       5.34359445       0.61094270
I        2.98519946       0.61498381       7.43983195      -0.31253042       0.13554091       0.01171842       0.16666046       1.75226191      -1.15577032
I        8.94544445      24.84112870       6.56370163       0.41861503      -0.15102157       0.01417750       1.13607748      -5.28843218      -3.74351921
I        5.31956625      22.67657242       5.61267594      -0.01091243      -0.26646160      -0.07055576      -1.01932148      -0.65173768      -0.49787165
I        6.74973168       3.43850689       7.04992994      -0.13380146       0.08989394      -0.12931757       0.96603297       2.29571316       1.52905503
I        9.34212040      24.64247850       0.04527238      -0.11309849      -0.00217275       0.22222507      -0.09113974       0.78219572       1.66097618
I        3.11885808       0.25867395      12.67128265       0.18947995       0.10358537      -0.08243999       0.78633173       3.88486310       4.66493826
I        6.93254895       3.10562012      12.92427630      -0.10047797      -0.03524851       0.14512777       1.33688492      -1.49423498      -0.53655098
I        5.20681088      22.63507615       0.46943341       0.12093613      -0.16872005       0.19954456      -0.39771816       2.45145143      -4.20647170
I       13.29371167       0.68437551      10.09121496      -0.09130482      -0.13327649      -0.20757740      -0.05102632       0.34771078       0.84444587
I        1.01248819      25.45037239       3.50080760      -0.15460685      -0.04886800       0.00281812      -3.14718646       0.90078312       5.08337764
I        6.24938045       0.95792280       3.62110531      -0.03595553       0.06971811      -0.40956789       0.60933169      -1.52632646       2.14378044
I        6.02065677      24.60199295       9.79580483       0.01725376      -0.13849815       0.31832807       2.67114734       0.79775723      -1.31793771
Cs       9.38472433      21.47370653      16.68656197       0.02827424       0.15124372      -0.05605525       4.10156606       1.46302157      -0.97416069
Cs       4.55869080       4.00169549      22.62528303      -0.33440107      -0.23239889      -0.00412670       0.05981276       0.82119560      -0.40067983
Cs       3.36636267      22.89888073      22.78781167      -0.13891607       0.15927705       0.07750258       0.64585753       2.89980165      -1.21808141
Cs       9.12361045       2.66059134      16.73330347       0.05987753      -0.03649311      -0.31437107      -1.65864831       1.25593199      -0.14352535
Pb       0.39396247       0.18305639      19.40274742      -0.10674295       0.11310726      -0.02179089       2.17680915      -1.99383426      -1.13430114
Pb       6.52141385       0.02728808      19.40124987      -0.14656149       0.01082186       0.11836553       3.97289240       3.50732662       0.78318539
Pb       0.08046575       0.06506094      12.71910756      -0.16203086       0.01349183       0.13818466      -0.08475830       5.13752813       2.86676420
Pb       6.12136825      -0.33077820      13.08133424       0.22021880       0.00606911       0.01423406      -0.81216688      -0.16199245       1.23096060
I        3.34733065       1.28975558      19.74395570      -0.21024523      -0.07513915       0.04191783      -0.87869806       1.58284539      -2.30967084
I        9.54452281      24.47513291      19.01323045      -0.07633280       0.11377053       0.00164182       2.96391132       1.30148028       0.78218917
I        4.96225205      22.61017365      19.44332345       0.12270595      -0.23851161      -0.10868170       0.63735792       2.44413692       0.26593667
I        7.21529065       3.27150919      19.77374114       0.02632476       0.07343599       0.03859973      -0.16854719       1.17947001      -0.15800832
I        9.56209996      24.46950602      13.95452034      -0.19176747       0.08804212      -0.11668662       1.75199940      -1.83460722      -0.09886801
I        2.90606583       1.17885549      25.12242188       0.06387053      -0.09525571       0.10172997      -4.79873877      -1.61965408      -2.31707604
I        7.28769865       3.34459501      25.26794259      -0.19201210      -0.10800286       0.08292129       1.34677660       1.94915215      -3.01181559
I        5.36531199      21.96930105      13.58572811       0.03607476       0.15817691      -0.09612782      -1.41012383       0.76159472      -0.95542881
I       13.45787056       0.09548597      22.31753605       0.03089306       0.06558286       0.00746601       2.47242434       3.11336356       1.15999223
I        0.34959434      25.41392831      16.37881259       0.04698636      -0.10102453      -0.03987387      -2.50620176      -1.01759437       1.86846399
I        5.62433036       0.31599410      16.23734373       0.11818344       0.01821709      -0.03607886       2.15798427       1.60288507      -0.90127954
I        6.17914405      25.56369631      22.71965429       0.03405597      -0.04201644      -0.03518804       0.42828713       0.88496438      -2.35622140
Cs      14.87315606       3.28784565       3.44853795      -0.06681354      -0.11029610       0.08513290      -1.06166224      -2.52079322       2.51656527
Cs       9.45847225       9.76045828       9.28436182       0.12431445      -0.02909105       0.11057901      -2.15629669       0.07299740       4.34537219
N        9.33466139       2.51293975       9.23145865       0.25028931      -0.74802715      -0.59265855       1.75273351       0.49183723      -0.29884816
C        9.10496445       3.75920357       9.97009234      -0.15990153      -0.36826788       0.23016566       0.02763030       0.16830520      -0.31039884
H        8.11674634       3.69927267      10.41488359      -0.26393246      -0.00888663       0.41771972       0.20014637       0.23641978       0.17049381
H        9.10259000       4.53837827       9.25657974       0.06874328       1.20305124      -0.85185860      -0.08714720       0.14044668       0.08041310
H        9.88262466       3.94457901      10.70195204       0.23958415      -0.17820635       0.29961820       0.07904315       0.18020380      -0.16904218
C        9.36212554       1.29418509      10.07909763       0.18528566      -0.47757684      -0.32425869       0.48757548       0.56729704      -0.37767839
H       10.27026689       1.37888529      10.67278957       0.11787832      -0.18478396       0.34726300       0.17876075      -0.18787306       0.06457658
H        9.42186305       0.36511179       9.42151770      -0.28018078       0.99347156       0.72167251      -0.02865571      -0.31209697      -0.07272969
H        8.45587264       1.37608429      10.70103460       0.23471313      -0.47984685      -0.00114498      -0.01037721      -0.39554191      -0.10323440
H       10.19886589       2.58450763       8.65305116      -0.12873017       0.03038044      -0.02776703      -0.12412209       0.17252039      -0.05064120
H        8.54708345       2.38371818       8.56323125       0.01221833       0.25154215      -0.28642750       0.07184580      -0.30396951       0.28903626
Cs      16.02201895       9.62847674       2.78817634      -0.11035522      -0.03265865       0.16865926       0.08238683       1.17349272      -0.18261798
Pb       6.46501912       6.73352971       6.82739605      -0.46273399      -0.13561551      -0.43406078      -1.85299568       1.91765661      -0.21590023
Pb      12.67890497       6.69913063       6.20934406      -0.11706665       0.01744541       0.34552046      -1.59038938       3.65201379       1.52497546
Pb       6.23256352       6.43363163       0.37852597      -0.37190840      -0.01319246      -0.40907203      -2.18709629       0.44761188      -2.43851499
Pb      12.66158061       6.37762309      -0.01335948      -0.24462697      -0.35488643       0.11929037      -4.63430746      -5.28399364       2.03228567
I        9.42162460       7.09841447       6.44633654       0.27722909       0.02070438       0.17261804       2.56153950      -0.38827936      -0.73814003
I       15.67386798       6.09145980       6.36826743       0.07093505      -0.20031505      -0.13012445      -0.21500204       0.99118858      -2.49794103
I       11.53006176       2.83589690       6.16624532       0.20779216       0.02563010      -0.06729408      -1.35588230       2.28436556       1.45025453
I       13.09090642       9.79049577       7.04400319      -0.04473845      -0.37451973       0.05423565      -2.52738015      -0.02880060      -0.29388364
I       15.50724065       5.81201355       0.71133577       0.28733179       0.02366233       0.00636799       1.74963040      -1.30257048       0.38270725
I        9.78674310       7.21531424      12.21802600      -0.48499039       0.11127674      -0.00983796       1.88045301       3.79023004       2.15556432
I       13.64095491       9.11405255      11.77639947      -0.09174879       0.11338148       0.16568923       0.49308456      -3.21452201       0.36448181
I       11.64351061       2.92212506       0.83038205       0.14994571       0.44961342      -0.07089309      -2.72403601      -2.77157441       1.95831783
I       18.68955462       7.02514428      10.08495852      -0.11947210      -0.08059956      -0.20037948      -0.88061600       1.71036320       1.79970828
I        6.22241013       6.44585834       3.32555930      -0.05268403      -0.08352504       0.38797836      -2.93318949      -2.85149759       1.84230044
I       12.22481938       7.14781038       3.23274207       0.14802441      -0.12386630      -0.23127066      -0.34238040       0.48919173       1.94185202
I       12.78614393       5.37461942       9.43770366       0.05204801       0.04818263      -0.04578129      -1.04334875      -0.65376855      -0.62687698
Cs      15.87044292       2.84789770      16.04514750      -0.01413383      -0.09842726      -0.08174148       1.47768278       0.13524436      -0.83960989
Cs      10.26190913       9.67144948      22.16251980      -0.27651873       0.18859621      -0.04721943      -0.72900978       3.98112476      -1.87091427
Cs       9.84567736       4.55467947      22.74360208       0.02228482      -0.17525887      -0.04045793      -0.27390007      -0.06758510      -0.23571091
Cs      15.54944314       8.67305587      15.89787649      -0.07020585       0.09931265      -0.03829284      -1.12908972      -1.28667216       4.75672467
Pb       6.54955334       6.55614737      19.29886114       0.00010131      -0.04676239       0.11178789      -5.17186636       6.20718578      -2.80724509
Pb      12.89257577       6.20761475      18.95931671      -0.21098802      -0.17336664       0.06029213      -2.10562646       0.64929421      -4.00000430
Pb       6.67438818       6.25004264      12.93326160      -0.02755640       0.02947100      -0.02263389      -4.00561916       0.75539226      -3.17236506
Pb      12.66000872       6.19434545      12.55918146       0.06688431      -0.07864645      -0.16001364       0.18739171      -3.22680322      -0.28254516
I        9.87020256       7.04693979      19.68683737      -0.20826190      -0.13161112      -0.16738677       1.59292390      -0.25806579       1.20898329
I       15.89949653       5.55767582      18.48650103      -0.02106928       0.04474174      -0.04862188      -1.96586638      -0.26547792      -2.72768005
I       12.37755233       2.99959984      18.47753048       0.01172622      -0.11650726       0.04085135      -1.09289322      -0.46265011      -0.04387834
I       13.08280014       9.37727116      19.39653383       0.20007839      -0.05224088       0.13774327       2.02630479       0.70346066       0.93356770
I       15.79081195       5.53067250      13.15618702      -0.00236685      -0.08265178       0.13313536       2.28734373       0.02201083      -0.37809116
I        9.09093968       6.84141503      26.05063466       0.57947356       0.12834809       0.00198267      -2.26233386       0.86024683       0.73521727
I       12.55187367       9.25774929      24.90517401       0.23436427       0.35046848       0.04932931       0.86215093      -0.43822540       5.41964250
I       12.32640549       3.07662909      13.82309845      -0.04134387      -0.22950903       0.00243674      -0.33498477      -0.32621474      -0.15984053
I       18.12256943       6.08329356      22.53168956      -0.00021466       0.33566363      -0.03894749      -1.26977325       1.48861313      -1.86838467
I        6.86370602       6.29806913      16.13282606       0.05079954       0.05595444      -0.14640510      -3.43066135      -0.07671898       1.01812750
I       12.00498240       6.64361239      15.61276445       0.13814621       0.12676010       0.37675595      -3.01289908      -0.56484342      -1.22163814
I       13.40423689       5.51874383      22.10258842      -0.00725447       0.14249424       0.13239048      -0.02504481       1.69385990       2.27532700
Cs      22.06859626       9.27764404       3.31036983      -0.01091421      -0.22905568      -0.04314343       0.84528592      -2.52323459      -1.35647375
Cs      14.99142116      15.79229543       9.58819586       0.23457156       0.03926374      -0.06462760      -0.25371260       2.94030356       0.12694454
Cs      16.08577425      10.27427668       9.31369863       0.16931754      -0.08323068      -0.05538536      -0.85777150       3.05112360       2.23875360
Cs      21.86636605      14.69301076       3.19109740       0.22643470       0.20794268       0.11896590      -3.58642039       3.08145517      -0.15502079
Pb      12.53561838      12.85639843       6.28844879       0.19488944      -0.04474595       0.04967955       3.45384502       1.80433953      -0.33103757
Pb      19.08200065      12.62363894       6.08322930      -0.15124079       0.01013886       0.27631393      -1.76158701      -1.39648000       0.73140706
Pb      12.31699425      12.48237772       0.41011523       0.45511484       0.06700540      -0.04230054       0.02795974      -2.39394591      -2.08085223
Pb      19.16571698      12.20018925      -0.12529055      -0.04776552       0.01014459      -0.14211949      -1.67783458       2.08844049       2.22996581
I       15.80598631      13.52282576       6.47956874      -0.00134496      -0.06689612      -0.03922538       1.54785835      -0.02521589      -0.35779196