400
Lattice="25.321549715262073 0.536498528793213 -0.08041196935555156 0.562283687879263 25.416406071764037 -0.15170099841901047 -0.1442443705290251 -0.14210224686669062 25.86131767320712" Properties=species:S:1:pos:R:3:forces:R:3:momenta:R:3 energy=-1323.915283203125 stress="0.0006824964075349271 0.0010065588867291808 8.537293069821315e-06 0.0010065588867291808 0.0008093685610219836 -0.00025042970082722604 8.537293069821315e-06 -0.00025042970082722604 0.001246924395672977" pbc="T T T"
Cs       9.48037440       9.94734546       3.07484895      -0.07686757       0.06504597      -0.07072652      -0.14992334      -0.11152290       2.53260994
Cs       4.27089244      16.63450166       9.84676099       0.03126803      -0.13182909      -0.14238948      -0.37630874       1.55910690      -4.53536622
N        3.16199373       9.21383119       9.10259807      -1.48532242       0.71147044      -1.96336317      -0.44727645      -0.97618081      -0.07832392
C        2.98199359       7.77860077       9.44548664       1.61691160       0.13076067      -0.39095904       0.10589960      -1.09955080      -0.14299377
H        2.17462376       7.64163770      10.13190678      -0.88733466       0.07891052       0.46545388       0.29021403      -0.20616624       0.02352842
H        3.93261032       7.56261273       9.94961471      -0.06878742      -0.52543883       0.06528080      -0.20584166       0.04291933      -0.08963405
H        2.87409623       7.15544627       8.53756325      -0.10634136       0.39512018       0.20493904       0.33392901      -0.05166049       0.03686469
C        3.53967909      10.06776576      10.25035909       2.21925548       0.15097504      -0.92346548      -0.04801164      -0.20706458      -0.10549122
H        4.16188408      10.94376303       9.90360846      -0.74021170      -0.64155971       0.16595992       0.10347124      -0.15780048       0.01970691
H        4.17197325       9.49498024      10.94152978      -0.04238460      -0.12423976      -0.12390413      -0.12466444      -0.18577519       0.32624051
H        2.67115883      10.36812528      10.74307374      -1.55554612       0.69675191       0.95653542       0.03428109       0.06000364      -0.06548255
H        2.16372674       9.56274521       8.68999184       2.01997207      -0.54643499       0.28299825      -0.04166426       0.26274176      -0.21651271
H        3.90211929       9.31453609       8.28562158      -1.11219860      -0.11662053       1.02575648      -0.17248501       0.06907940      -0.15056048
Cs       9.55915718      15.74307951       3.40270460       0.17129238       0.06025273      -0.03279147       2.54625029      -0.21071987       0.66856567
Pb       0.40170200      12.72160324       6.49561942       0.10458567      -0.07230676      -0.01628481      -1.57133383       2.40254489       1.75869334
Pb       6.76249978      12.77499677       6.14140739      -0.34057193       0.17470565       0.10795417      -1.46245766       2.95589347      -0.62989179
Pb       0.17327172      12.79371404      -0.09133509       0.06056267       0.03230784      -0.04296131       1.44398646       4.46791102       1.41167098
Pb       6.51486971      12.88761208      -0.67617555      -0.19533687      -0.00579016       0.34912317      -1.56141857      -1.25299716      -1.04983075
I        3.83708761      13.73151421       7.24913084      -0.21981283       0.03972742      -0.08193902       0.30934147      -1.60563532      -0.11487950
I        9.74829080      12.39752716       6.07240807       0.15824647      -0.04342146      -0.05798003      -2.13384512       3.15722120       2.01787421
I        5.23128265       9.77044308       6.21536065       0.09006127       0.08283668      -0.10757240      -1.45081167      -1.47352390       2.35155968
I        7.94379527      16.12111688       6.83450896      -0.34396517      -0.07332185      -0.11333662       0.45133916       0.98762505      -1.42661934
I        9.65025382      12.35574690      -0.33176948      -0.16424988      -0.14192832       0.03227252       1.75678544       0.91087483      -0.95688352
I        3.37852273      13.30219762      12.77190108      -0.03887107       0.13877019      -0.02155411      -0.48404270       1.09393859       0.03115150
I        7.40243066      15.98703892      12.37345260      -0.12778476       0.17208591      -0.00660307       0.67419759      -1.00041697       0.62655648
I        5.74811398       9.82721250       0.57362748      -0.02742377       0.15081469      -0.31321602       1.02820316       1.59366005      -0.42283396
I       12.15790764      13.70847238       9.61011163       0.18593937      -0.17484264      -0.11536751       2.31801615      -0.42691744      -0.30470830
I        0.35942235      11.77648348       3.13628101      -0.11904127       0.21519597       0.00714699       1.03828817       4.49495089       4.39363898
I        6.64341103      13.52088035       2.81660279      -0.02073415      -0.03987893       0.10561680       1.41082926       0.28879353       1.21150434
I        6.98443760      12.40492487       9.51124645       0.10587244      -0.00364197      -0.15807837       0.47840090      -2.12309050      -2.27779600
Cs       8.71272293      10.42360458      15.78211124       0.09828326      -0.26397474       0.05836826      -2.63085269       0.25767158       0.80834037
Cs       4.37617597      16.45814796      22.20822119      -0.40349422      -0.07029576      -0.08916739      -1.35246206      -1.20407942       0.80529125
Cs       3.38628455       9.31537950      22.61735745      -0.03602793       0.14140410      -0.01880272       0.04636425      -1.66789055       1.46313400
N        9.89738237      16.28285370      15.30369581       0.07365533       0.28267518       0.85574511      -0.22819098       0.02809974      -0.25817068
C       10.19195099      17.61607789      16.04503462      -0.85187019      -1.05972389      -0.74046844       0.95488895       0.28170086      -0.90187522
H        9.40444423      17.69534736      16.83908529       0.63136990       0.25110620      -0.60113220      -0.16223478      -0.05629427       0.29403063
H       10.19985827      18.39383449      15.28624203      -0.48369198       0.36160761      -0.17610168      -0.04302777      -0.24125115      -0.00811761
H       11.20858114      17.63083899      16.43888841       0.10790570      -0.55013085       0.33607113      -0.01356307      -0.12770856       0.12581809
C        9.78440952      15.17542183      16.33268932       2.47700077       1.37550541      -0.21241254      -0.25297919      -0.31051322      -0.00942748
H       10.84030738      15.13487289      16.76672760      -1.29224802      -0.44916243      -0.28009177      -0.12297864      -0.18896337       0.35028344
H        9.48874759      14.31311739      15.78525040      -0.21370791      -1.14092343      -0.22594121      -0.10573395       0.05440444      -0.23889325
H        9.08988429      15.47159865      17.10380383      -0.42865456       0.09739656       0.21613984      -0.10768499       0.03229803       0.01843090
H       10.68610302      16.06371792      14.58636244      -0.72610670       0.30864482       0.69473697       0.15549914       0.17967620       0.21676549
H        8.98177000      16.27419947      14.79158357       0.53719921       0.53301779       0.00985679       0.10391008      -0.35112766      -0.20153057
Pb       0.31472080      12.74306868      19.60546381      -0.35369820      -0.03280941      -0.12641144       1.99289506      -2.15896346      -1.30039674
Pb       6.40528899      12.90237070      19.33910409       0.16239708      -0.15424562      -0.34449057      -2.51654999      -5.37978994       0.02381914
Pb       0.18407222      12.52990160      12.85440840       0.13009506       0.50340435       0.06834230       3.11936166       0.13576834       0.00117706
Pb       6.69173319      12.78629294      12.50175133      -0.31831541       0.08514158       0.09065795      -1.18985572       0.81148371       2.12668006
I        3.35969131      12.95634708      20.03377819       0.01165578       0.03142459       0.11312289       0.65833617      -1.98620980      -0.21745560
I        9.73407459      12.34671992      18.74408026      -0.20672823      -0.10049905       0.19766924      -1.12285822      -0.95140824       1.39192319
I        5.96770527       9.69792654      18.32127477      -0.04425909      -0.02384514       0.19997202      -0.22750925      -0.14280978      -1.83016752
I        7.14600914      16.00305044      19.65156208      -0.04564097       0.08962270       0.00025071      -0.30828261       2.27662844       1.14159038
I        9.66972997      12.36523041      12.82765147       0.24761232      -0.05701110      -0.00586993      -0.45543390      -0.35465902      -2.21018745
I        3.25245606      13.45093536      24.97682960      -0.01944517      -0.09116974      -0.12647593       0.06179686       0.70908350       1.41084582
I        6.91599229      16.29557578      24.63592857       0.20599069      -0.33805564       0.25536187      -0.74582659       2.22325156      -0.93564322
I        6.03144775       9.56869304      13.25804286      -0.09907873       0.17608433       0.10137181       0.31628746      -1.22893466       0.69843413
I       12.37116035      13.11137437      22.18041192       0.20241367      -0.24783360       0.21759789       3.99524041       2.81200582      -2.03532542
I        0.68059695      12.63636168      16.37006285      -0.03362843       0.01490772      -0.12773866      -0.49767188      -2.20160022      -0.18295330
I        5.95911879      13.33866030      16.13039128       0.09630382      -0.11729392      -0.07685451      -0.13049184      -1.21100391       1.24419965
I        6.76613961      11.89106658      22.25209970       0.05363764      -0.15474799       0.18597386      -5.23011781      -0.65791627      -2.10523820
N       16.64989358      16.01856435       3.62698887       0.04410556      -0.11286218       0.01348397       0.07698666      -0.01131482       1.04791026
C       15.14668341      16.12433811       3.38990241       1.31304189      -0.63480317      -1.61409564      -0.00544672      -1.37811694       0.69336193
H       15.05892023      17.01735577       2.75431514      -0.45269819      -0.18061027       0.14809110      -0.18917587      -0.09578021       0.00897881
H       14.62348730      16.20014345       4.30751713      -0.59690217       0.14001385       1.05415988       0.05336882       0.22512490      -0.13010315
H       14.81464404      15.19856955       2.81744140       0.36363314       0.98751925       0.56740927       0.01260039       0.03241534       0.03279151
C       17.36946312      16.12269926       2.33282925       1.23054567      -1.50693005      -0.32846992       0.60111182      -0.29810045      -0.02286741
H       16.90218081      16.91446981       1.77576741       0.15248036       0.76321903      -0.17186061       0.05524274      -0.25642140       0.13618698
H       17.19553111      15.18332156       1.72470456      -0.04991212       0.61678934       0.65461170       0.05082709       0.19524121      -0.15204965
H       18.49848743      16.17364123       2.46434361      -1.24023603       0.32892467       0.04368438      -0.29258096      -0.27425564      -0.20138017
H       16.85746817      15.08373195       4.01904681      -0.11169102      -0.18433792       0.32556187      -0.07150029      -0.21180853       0.06400500
H       17.01127448      16.70111250       4.37063558      -0.59281400      -0.22299216      -0.68908593      -0.10933836      -0.45948402       0.03007839
Cs      10.69865617      22.82063873       9.02026955      -0.21800261      -0.29400110       0.16523008       1.41570812       0.32639065      -1.68461541
Cs      10.07548273      16.85802117       9.72464033       0.09662495       0.09658516       0.09593689       0.07751814       0.17507213       1.04216297
Cs      16.22758205      22.26793045       2.66577493      -0.30834091       0.02542319       0.32569934       0.02843838       0.49206307      -0.99426741
Pb       6.88510805      19.42454988       6.15858199       0.26785649      -0.00044524       0.11267049       2.78492957      -2.11718982       2.63917259
Pb      13.50655394      19.53763938       6.00379403      -0.16158265      -0.28044887       0.31148339      -1.38193007       0.63038901       0.02437656
Pb       6.80063926      19.51582580      -0.20041089       0.00005098      -0.17968360      -0.07887891      -1.88746240       0.53643008      -2.97095937
Pb      13.12687541      18.93493169      -0.36104319      -0.36151939       0.22981572       0.36722809      -1.24206840      -0.30800797       2.85127073
I       10.13396262      19.69594767       6.98305125       0.11252380       0.11678687      -0.18887530       2.17799168       1.29976882      -0.75492934
I       16.57705256      18.61227825       6.08968155      -0.11620384       0.09696489      -0.01472579       1.59777644      -1.93523847       1.46266115
I       12.51494595      16.31162737       6.64490349       0.06606364       0.04890151      -0.12055381       0.41538658       1.54365416       0.74856878
I       14.38154194      22.50776542       6.20491930      -0.00959304      -0.01587032      -0.09591930      -0.84234092       2.53653408      -0.51623563
I       16.09879173      18.71490535      -0.05559685       0.34623199       0.13553957      -0.13594522      -0.89506235      -0.41418780       3.76335735
I        9.92288994      20.09546285      12.13350256      -0.07979802       0.00295501       0.09897388       1.87240081       2.81333813      -0.84982144
I       14.23583349      22.75828935      12.89433533       0.05146211      -0.03350732      -0.13850029      -1.94763735      -0.47254826       0.21661955
I       11.86173361      16.15194406      -0.40129749       0.08815420      -0.25108786       0.21288429      -0.95074277      -4.41684088       2.03257391
I       18.69441522      19.85747823       9.64989147      -0.17260526      -0.08300727      -0.23688175       1.20197463      -1.61903924       2.79172762
I        7.37170008      18.92996311       2.99303752       0.05778444       0.01187430      -0.01800850      -2.63327335       0.22425103      -0.45586331
I       12.60199525      19.41847876       3.08395254       0.00562552       0.08996181      -0.06698782      -4.94097412      -0.39396439      -0.09991916
I       13.56492142      19.68109304       9.73268413       0.06996452      -0.04872263      -0.01089327       0.56133438      -3.75174793       0.73335501
Cs      16.16745577      15.90308642      16.09578050      -0.11653145      -0.03330026       0.08368611       0.81242973       2.11281449       4.94792869
Cs      10.66436485      22.60644719      22.36373680       0.00429922      -0.06310424       0.04862917      -1.10644463      -2.83118142      -2.09618710
Cs       9.81073557      15.53382409      22.14427437      -0.04543307       0.21454183       0.05333666       0.34663786      -0.57123873      -1.50705165
Cs      15.97851619      22.84928790      16.67474302       0.03354465      -0.10494274      -0.14866332       1.17768001       2.33875770      -2.18202774
Pb       6.62735925      19.26745763      19.45414503       0.09696541       0.05286017      -0.21246302      -4.67635714      -0.38864226       1.22150256
Pb      12.88304328      19.05633122      19.46264886       0.14837422       0.10868677      -0.14294167       1.58319295      -2.15917577       2.94647754
Pb       6.44471798      19.24791066      12.69833690       0.26311027       0.19625163       0.14644726      -4.72235343      -5.26895175      -1.35304261
Pb      13.19945140      19.81008169      13.08658529      -0.16003543       0.20170892      -0.15380033      -0.01924213       1.12204098       0.25512091
I        9.89447038      19.70821476      19.63615656      -0.23938674       0.11949450      -0.00041707       1.09844191      -1.71153396       0.82852272
I       15.99744769      18.70213737      19.04034795       0.29960736       0.07166325      -0.08325313      -1.30981810       3.26067061       0.88444597
I       12.87237015      15.99402095      19.06094230      -0.09245535       0.07936976      -0.03090137       1.38993948       0.09943707      -0.38926774
I       14.00739111      22.39452179      20.00045052      -0.08827772       0.00896328       0.07267547      -1.23561298      -0.98171681      -2.85611423
I       16.01447428      18.79904259      13.72627984       0.25711747      -0.00311351      -0.14882651      -1.71494346      -2.89665885      -1.40333079
I        9.71628516      19.49810482      25.30133218       0.10940971       0.25912042       0.05494377      -1.80797653       0.42852453      -3.20485919
I       14.01955906      22.51933506      25.18004191      -0.16759780      -0.18794229       0.04100909       0.20221415       0.83689471      -3.33228973
I       12.59568216      16.35687263      13.18102857       0.09718579       0.19450939      -0.12245867       4.47311214       2.30787390      -0.01260406
I       19.10868823      19.60711150      22.75624616      -0.07400150       0.08539025      -0.35353539      -0.04885096       1.38616548      -1.82576052
I        6.56647295      19.06032345      15.90722067       0.00303307      -0.11884024      -0.14904630      -0.24575930      -2.34575647       0.10794483
I       12.56549789      21.03716362      15.97842293       0.39269210      -0.22889668       0.10619959       0.18277492       1.43941439      -0.56611719
I       12.90261916      18.54217716      22.52914669       0.00412434       0.08680557      -0.38804095      -0.25204184       0.62426705       1.99728698
Cs       9.98682300      22.24744330       2.89855590      -0.05669831      -0.08715098       0.06315986       1.12594334       0.21277753       1.76634416
Cs       3.60529898       3.96429499       9.23428150      -0.09019835      -0.12531733       0.13433441       3.37294620       1.08925737      -0.09724060
Cs       3.97917965      22.57060744       9.69607636      -0.14915637       0.16701746      -0.02622583      -0.08892931      -0.10752053      -0.94440614
N        9.25058657       3.42074018       2.58041152      -0.40415180      -1.13038637       0.53099786       0.06380134      -0.22142617       0.44811319
C        9.34702062       4.57702098       3.48004691       0.24520261       0.67794822       1.13665198       0.43172629       0.02860496      -0.42542367
H        8.95787018       5.50393557       3.02807303      -0.19811358      -0.38301987      -0.09786184       0.11753433      -0.11496282       0.18109933
H       10.36030458       4.84131187       3.86053186      -0.13179965      -0.70077170      -0.53012056       0.11058854      -0.06951537      -0.27087142
H        8.76894025       4.26672299       4.35843996      -0.21085711       0.43169800       0.00511177       0.11125283      -0.10922644       0.03159733
C        9.51257555       2.05361297       3.29371895      -0.58371978      -0.14637583      -0.17236441       0.79152028       0.24600169      -0.31988713
H       10.05044301       1.53794644       2.52789144       0.81091144      -0.72886107      -0.43936556       0.05258161       0.01759547       0.24915602
H        8.67637830       1.26978035       3.52736748       0.62361053       2.07012169      -0.02672455      -0.33125292      -0.02948563       0.01143170
H       10.22327481       2.27720311       4.12166300      -0.70474470      -0.18602872      -0.26328512      -0.19499203      -0.14020208      -0.08407230
H        9.93735964       3.41979242       1.82892020       0.55679726       0.47642052      -0.38631897       0.02686352       0.30345761      -0.07956852
H        8.34474896       3.47648003       2.06242429      -0.02274746      -0.38069189       0.15423561       0.27616557       0.01136683       0.08836220
Pb       0.40409536       0.14942538       6.32066746      -0.26614969      -0.15497866       0.07936528       0.07689600      -1.93357886       2.12909059
Pb       6.50934254       0.55381180       6.51074651      -0.14421038      -0.49416037      -0.37099915      -3.93000440      -4.62724387      -1.46341255
Pb       0.20491343       0.11666851      -0.03861548      -0.04476538       0.10222779      -0.03749876       1.47933103       1.10716182      -2.71442878
Pb       6.78047745      -0.10558863      -0.15397894      -0.11961839       0.35091758       0.08854237       5.56460976      -3.05699696       2.16835075
I        3.28246012       0.63690817       7.14016036       0.36358357       0.13559080      -0.02213453       2.08993670      -1.14264133      -0.22711237
I       10.28832542      24.72620830       5.77084044      -0.03823290       0.00995403       0.14378474      -2.38396548       1.71924707       0.31864727
I        6.67328961      22.51581666       5.95970178      -0.07115082      -0.06935185      -0.24170459      -1.96641796      -0.19146336       3.18674221
I        6.34877960       3.58846267       6.48283756      -0.02532565       0.15286019      -0.07407070       0.16405675      -0.13201757       0.27740858
I       10.48550190      24.63128733       0.11318098      -0.19697381       0.02024016      -0.12872238      -0.30699130      -2.87765237       1.22713918
I        3.34413286       0.67870931      12.33689953       0.16231443       0.11154583      -0.04448125      -1.14963530       0.09134848      -3.63773808
I        7.07706866       3.25505780      13.12304370       0.03214846      -0.09709533      -0.18000247      -0.33080708       0.28880681       0.09170099
I        6.44899658      22.53198049       0.70361342      -0.01009600      -0.04972752      -0.03532048       0.36909787      -1.16241489      -1.61333373
I       12.70122472      -0.13792736       9.77478753      -0.01207935       0.15719739       0.10873524       4.82445104       1.67639469      -1.17010267
I        1.01488844      25.92265521       2.98424895       0.16261996      -0.16664741      -0.10296434       1.06465933       4.05486676      -1.10298971
I        5.19941737       0.25276948       3.19648930       0.19990477       0.02431618       0.05465839       0.54018832       1.97226600      -2.71840903
I        7.01899680      24.79083698       9.17612547       0.22576972       0.14040977       0.40035104      -0.12184459       0.59962153      -1.67369547
Cs       9.23855972      21.76060998      15.98626173      -0.32382945       0.23819836      -0.06428115       0.40968335      -1.00880885       1.05166880
Cs       3.79539392       3.74387169      22.51072970       0.05456601      -0.13793673      -0.02034562       3.51395078      -4.53668079      -3.90387191
Cs       3.73864442      22.81762107      22.59120854       0.23232483      -0.01444608       0.09299277      -1.79640876       0.02081868      -0.42193521
Cs       9.23623880       3.16536172      16.25182957      -0.00645388      -0.02662202       0.11577270      -0.80427284       1.30219375       2.48695169
Pb      -0.18942674      -0.14958081      19.87378675       0.03403045       0.21882837      -0.27360881      -1.41434474       1.88820669      -2.44976356
Pb       6.17719189      -0.16924727      19.45237166       0.22670190       0.06962646      -0.14496088      -0.88167125      -2.83900486      -0.75632766
Pb       0.35891378       0.07460590      13.05768339      -0.16228442       0.14936611       0.06398247      -0.49734198      -3.08792661       0.35426739
Pb       6.44894086       0.18715265      12.74353779      -0.04812115      -0.16426268       0.21110051       1.89096874       3.07666764       0.80921931
I        3.29488548       0.53189196      20.08868455      -0.26594180      -0.04323636       0.04054225       0.80526627       0.65012626      -0.79533094
I       10.12919210      24.61560269      18.91289804      -0.03899911       0.10401955      -0.04763800       0.25875167       0.33603431      -1.31522461
I        6.17193683      22.29362666      18.22672508       0.07648154       0.13653057       0.30487788       1.56947400      -3.54631656       1.79405080
I        6.27462048       3.28087056      19.40602090       0.27228128      -0.16620768       0.07247061       2.33956492      -3.61126046       1.07768342
I       10.46866155      24.96606849      13.49358808      -0.62311750      -0.15610582       0.02605226       1.77584493       2.36954558       4.22078838
I        3.52290011       0.61267631      24.89702173      -0.16265056      -0.06310978       0.11822306       0.34578639       2.79023095       1.50628747
I        7.07834214       3.26937189      25.43377744      -0.06050898       0.00321970      -0.03742676       0.32779465      -1.15106656      -2.41719150
I        5.90334578      22.47212192      13.34812406       0.09988631      -0.15196300      -0.11151708      -0.40107994       2.60422494      -0.31604655
I       12.00881927       0.74152652      22.54287676       0.11325670      -0.10111628      -0.01205900      -1.74221928      -0.60348156      -2.01310912
I        1.24976140      25.53718432      16.27067966      -0.05634641      -0.17322200      -0.11988839       0.26774291       2.72419006      -0.09000313
I        6.01784104       0.46050238      15.88735708      -0.00545516       0.01409106       0.15445333       0.10768862      -2.07649043       1.31156893
I        7.43404213      24.69356553      22.50340723      -0.03383100       0.05361166      -0.16562394       2.82853987       1.80583222       0.09060574
Cs      15.12167047       3.57296974       3.27843224       0.07628092      -0.06229331       0.05302522       2.10337794       0.77239058      -0.13520769
Cs      10.11158004       9.57304903       9.62646617      -0.07300207       0.31478856       0.29168878      -2.17658270      -0.25304089      -2.11512625
N        9.82709627       3.23731606      10.35303393      -1.46830011      -0.53969809       0.79970898       0.42632679       0.32833580      -0.35343173
C        8.62913841       3.34050907       9.40103523       0.15893065      -0.94829116      -0.60468611      -0.87561752      -0.12597472       0.29579546
H        8.50185504       4.40530119       9.19510532      -0.34719335       0.10648073       0.22988016       0.04332159       0.08831446       0.00092284
H        7.71977121       2.85128251       9.85898515       0.84421096       0.52672790      -0.34473551      -0.05818259      -0.18127364      -0.12547299
H        8.84360783       2.85926476       8.37459043       0.05529512       0.37284394       1.52055050       0.48913313      -0.06866891      -0.01907390
C       10.90975554       4.18059099       9.93452541       0.26635169      -0.28748916       0.29055389       0.07765090       0.41044656      -0.36083872
H       11.74350822       4.14954603      10.69828230      -0.71212458       0.16356029      -0.80501736      -0.35473631      -0.06463222       0.17728522
H       10.48663575       5.18862118       9.74548964       0.00520550      -0.27837296       0.62769185      -0.08632353      -0.34223692       0.20939481
H       11.21354543       3.84343295       8.93939130       0.40215252      -0.20234268       0.02841455       0.12456897      -0.00362401       0.21900710
H       10.14246542       2.23462207      10.36867543       0.12082190       0.67343938      -0.18063462      -0.13262565      -0.00445822      -0.18922400
H        9.47173162       3.36676211      11.38167323       0.58200353       0.20019714      -1.48642466       0.03853901       0.02895600      -0.10018431
Cs      15.87251527       9.68496020       3.40383093      -0.09999188      -0.00736654      -0.05488029      -1.97811938      -1.21517754       0.81134451
Pb       6.40643220       6.86139925       6.14357428      -0.07228512       0.09646259       0.03851394      -0.42105963       0.81747496      -1.20718054
Pb      12.36267726       6.56517011       6.63016405       0.22358493       0.06651005      -0.19337150       3.46782209      -1.45626909       1.08346650
Pb       6.45378782       6.55654879      -0.12515614      -0.02099439       0.05713624      -0.03199999       3.37699069       1.01534468      -2.05066026
Pb      12.59036897       6.60044351       0.39646415       0.25190916       0.15255680      -0.17394081      -1.06712828       1.52346606      -2.39343376
I        9.38841617       7.84549907       6.64979414      -0.22901186      -0.13579910      -0.22563924       2.36649717      -1.90204521      -0.13475344
I       15.53698880       6.43608328       6.09663735       0.30865888       0.05298159      -0.06764268       2.29761143       0.83951869      -1.30834874
I       12.47551458       3.47242900       6.10769743      -0.02779747      -0.08972981       0.03490872      -2.13382013       0.94130287      -0.35097678
I       13.03550993      10.03210714       6.99092733       0.01963010       0.02552013      -0.17493641       1.66784986       1.61851672      -0.66771511
I       16.08829001       6.27134310       0.52423554      -0.34972166       0.02374022       0.03543558      -2.34095325       1.11961070       0.99963034
I        9.43342904       7.34063340      12.83948291       0.11307743       0.09384081      -0.10231754       0.71174418       1.47644849      -0.53628292
I       13.45681612       9.89249803      12.28224700      -0.00647464       0.16614983       0.07347572       3.36094538       0.23287494      -0.21348958
I       12.50639954       3.49450382       0.34400474      -0.10095492       0.06826259       0.04663341       0.97660246       1.32203595       1.69509784
I       18.65265117       7.19272985       9.74355448      -0.10571547      -0.00513973      -0.40386360      -1.57883898      -2.78177818      -0.55240833
I        6.56926930       7.05650266       3.02230368      -0.08139858      -0.05589925       0.20479790       1.78777348       1.07951923       2.56912071
I       12.33734510       7.49571173       3.39971371       0.13572017      -0.02533261      -0.06031112      -2.80998493       1.70459225       0.77583393