600
Lattice="26.01583137840631 0.38636808950004475 -0.12658189785582769 0.3255986502996525 26.14145843128314 -0.06152679461151665 -0.20662675634111047 0.012044543735601524 26.075953673148355" Properties=species:S:1:pos:R:3:forces:R:3:momenta:R:3 energy=-2373.10498046875 stress="0.0005011463072150946 0.00041177385719493037 -0.0008786196121945978 0.00041177385719493037 0.000668151944410056 -0.0007174588390626013 -0.0008786196121945978 -0.0007174588390626013 0.0008644084446132183" pbc="T T T"
Cs       9.38980473       9.49652795       4.01447126       0.09074793       0.00019826      -0.09954333      -0.74294087       1.16977827       2.39602873
Cs       4.19880359      16.62428768       9.77852149      -0.02961206       0.00722962      -0.07197352       1.07563355       0.72672057       0.22556917
N        2.89710206      10.09717094      10.59934038      -0.60449124       0.66825058      -1.46712986      -1.17735857      -0.57681450       0.00276569
C        3.01221251      11.28326183       9.61092804      -1.11074464      -0.60307359       0.15898679      -0.64555074      -0.26345827       0.29354032
H        3.88394943      11.21193445       8.90770393      -0.54285417      -0.25563564       0.73080155      -0.07597427       0.04399588      -0.04369240
H        3.00701590      12.23378282      10.17428424       0.23209222      -0.29285232      -0.05921109      -0.06200192       0.06745399      -0.31722380
H        2.02959063      11.20488835       9.05103106       1.03030915       0.24598038       0.19290396       0.08782677       0.01363111       0.02522603
C        2.66199915       8.79715796       9.82186079       0.21959481       1.54696806      -1.10296358       0.28909604       1.25004250      -0.20325704
H        3.40518288       8.80184133       8.92593064      -1.19187656      -0.26552987       1.45605623      -0.15640007       0.10164261      -0.07979106
H        1.58639249       8.81073047       9.46672580       1.05293177      -0.00254183       0.15061868       0.20707120       0.10989476      -0.09400195
H        2.80725117       8.00493472      10.52651364       0.27228679      -0.84541014       0.33768952      -0.09711650      -0.11135272       0.02484605
H        2.07824991      10.29126946      11.21790122      -0.19012353      -0.19214056      -0.20023176      -0.04874593      -0.25033547      -0.01426481
H        3.66571580      10.04646185      11.27658891       0.87524278      -0.19302872      -0.07196641      -0.01469409       0.19050766       0.17443359
Cs      10.18437891      16.49345669       3.17765466      -0.08131024       0.01884390      -0.01976705       0.64034572      -4.08266398      -0.68595548
Pb       0.10866507      13.42724653       6.99923284      -0.10028110       0.03773298      -0.02623489      -0.50942660       0.71467368      -2.27718035
Pb       6.50690408      13.55040906       6.40907979      -0.01234218      -0.10077719       0.02114553       3.13858703      -1.43751953      -2.20881503
Pb       0.21328205      13.38148126      -0.10844693       0.12787329       0.00849032      -0.06917031       3.00213970       0.75070577      -1.37382630
Pb       6.55441409      13.25156011      -0.29129970       0.15747530      -0.10007056      -0.07701759       4.71206264      -2.09961297      -1.71535974
I        3.16104529      14.08631417       7.13927622       0.20968171       0.11926961      -0.17446930       1.30863337      -1.49470893       0.81706918
I        9.45827754      13.22804023       6.76549444       0.30174107      -0.20762536      -0.00715565       1.47682944       1.46201403      -2.70140603
I        6.57401353      10.18199658       6.46748528       0.02941747       0.03721947       0.14151239       0.33288309      -0.73314358      -2.77667275
I        7.54528611      16.70308673       6.94765980      -0.16136726       0.00430110      -0.08346274      -2.31725165       1.68837078      -4.43432976
I        9.83626449      12.35526675       0.02102308      -0.12469533       0.25944720       0.05145710      -2.08502152      -1.90469099       0.70570274
I        3.54296161      14.22899315      12.83653355      -0.47904109      -0.04535014      -0.00555245      -3.56413467      -1.26798051       1.64640891
I        7.06462687      16.68763391      12.65788602       0.05878107      -0.09551313       0.12329650       0.09209640      -0.73230172       1.38128573
I        6.47093576      10.13716503      -0.01202723      -0.04741710      -0.04194765       0.00379515      -2.14742675       0.07133713      -1.44188392
I       12.34825483      13.23162657       9.92609387       0.08454127      -0.04693924      -0.16617447       0.57890777      -2.79888144       1.86808927
I        0.38126661      13.58312050       3.34181371      -0.04496499       0.02521539       0.06059113      -4.04667122       0.11616157       1.49514673
I        7.18221183      13.35421451       3.12242893      -0.13347786       0.05493865       0.10401604       0.78936658       0.41973704      -2.22302649
I        6.64648785      13.51624171      10.02801472       0.05967357      -0.07223809      -0.36345311       2.21966998       0.49710183       0.70436626
N       10.90520939       9.21185983      16.01720610      -1.98832008      -0.07217771      -0.85020015      -0.84742103      -1.09894588       1.15381280
C        9.49241550       9.52660236      16.46153179       0.62315772      -0.99650715      -0.49461739       0.19746206       0.09572667      -0.39695412
H        9.57813450       9.96320123      17.43054501      -0.30126113       0.51738536       0.83577419       0.05727140       0.30188377      -0.18834397
H        8.89893500       8.62546784      16.46468735      -0.18333631      -0.57558754       0.18396500      -0.01377839      -0.00608136      -0.01267881
H        9.05335710      10.16105513      15.71184505      -0.18114673       0.73108717      -0.24519723      -0.03132045      -0.03057460      -0.23170868
C       11.66064216      10.46134379      16.02320234       1.00975894      -0.18601585      -1.88519357      -0.02911485       0.41965558      -0.25110853
H       11.55614057      10.97054805      15.00547836      -0.13408682      -0.36569360       1.21069007       0.32360205      -0.17847629      -0.02011752
H       12.71552905      10.22270787      16.14170858       0.28026358       0.10154887       0.19849282       0.10822271       0.16030033      -0.05474356
H       11.27915307      11.03228995      16.83089703      -0.10120330       1.00043801       0.77161956       0.00021143      -0.30906216       0.03723173
H       10.77272256       8.93087909      15.01093133       0.42417239      -0.60881992       0.46039405      -0.14759677      -0.16568863       0.14459652
H       11.27860586       8.39613942      16.58267239       0.28205694       0.45212307      -0.46073571       0.10588030       0.18553998      -0.05279238
Cs       3.98369755      16.05460788      22.49870837      -0.09030930       0.14819608       0.07104868      -2.29919793      -1.87283708       2.12479392
Cs       2.44806397       9.83013380      22.83360346       0.11692045      -0.17756705       0.09789526      -0.69320702      -3.37744333      -1.04567964
N        8.25783891      16.39333384      16.16799773      -0.43466190       1.89305087       0.03917563       0.25094328      -0.69064979       0.14313363
C        8.96571837      17.65202535      15.79474486       1.12683950      -0.30853724      -0.03870609       0.00590019      -0.26131911       0.24155230
H        9.57647383      18.00219830      16.62604718      -0.46400064       0.33388091       0.54382797       0.13708080       0.17590506       0.18380275
H        8.28032915      18.37131759      15.35023572      -0.01558135       0.17777469       0.18594672      -0.19384758      -0.09071938       0.01947871
H        9.75315750      17.37191185      15.09124768      -0.20992968      -0.12122460      -0.53617866       0.04892943       0.09971975       0.03288424
C        9.14781357      15.27500505      16.42355614      -0.34439063      -2.19500659       1.62555086       0.03779416      -0.19401090      -0.66401735
H        9.48812994      14.86952480      15.46463434       0.26874593       0.10386643       0.06321478       0.01352389       0.06486349       0.03259929
H        8.48877246      14.51240092      16.92401770       0.62815309       0.23271789      -0.56112771       0.24777846      -0.14163013      -0.02479391
H        9.97279463      15.43030012      17.16733908      -0.47214744       0.63415090      -0.71016811       0.19231155      -0.15862509      -0.03259916
H        7.70083108      16.19561272      15.34453455      -0.54019557      -0.53511731      -0.96707076      -0.05899547      -0.20299354       0.19602363
H        7.52183711      16.58307754      16.88336192       0.58496579      -0.23586753       0.45196168       0.01792837       0.00829347       0.06070106
Pb       0.13027146      13.07672673      19.56931254      -0.21875167      -0.04188588       0.17024436       0.09274654       2.98770173       1.13620077
Pb       6.35426306      12.69970077      19.31394680      -0.17497683      -0.07530147       0.22114857      -5.85151701      -5.97698893       1.79619818
Pb       0.29553521      13.12678608      13.21165744      -0.09470224      -0.00482542       0.14869823       0.70000597      -3.29509514       2.10005618
Pb       6.47254184      13.22304364      13.16799997      -0.01746117      -0.07133667      -0.20030028      -0.28983330      -0.92893141      -2.36754284
I        2.99190555      12.77461798      20.52692079       0.19367839       0.15278050      -0.20376227       0.71846275       2.10039965      -0.40274219
I        9.36470293      12.37921511      19.42940487       0.26529877      -0.00229467       0.06119397      -1.19834987      -1.31190297       0.97641709
I        5.87934467       9.43923988      19.14902208       0.00904443       0.15421000      -0.08006085       2.20897135      -1.40881533      -2.38618076
I        6.62867363      16.20484645      19.75219206       0.04408789       0.02438575      -0.01272423       3.64783590      -1.10017573      -2.74923285
I        9.62037483      13.32608275      13.07645916       0.25279360      -0.12988785      -0.04373196      -2.92276727      -0.77279339       1.79158074
I        3.17618704      13.12573368      24.91477235       0.25942960       0.04819662       0.04990791      -3.31909386       1.85302455      -0.33091223
I        7.38531426      16.52569003      25.47189246      -0.17470224      -0.04062785       0.03188238      -2.50337548       0.91290297      -3.14340738
I        5.91960558       9.88005485      12.64483634       0.00796962       0.48887628       0.07212101       1.64869829       3.50455319       1.58672218
I       12.30773012      13.30460244      22.83927946       0.13121853      -0.08364378      -0.04991226       0.97002807      -1.28769559       2.11551393
I        0.55555624      12.36597330      16.46081995      -0.03218847      -0.06665844       0.01074808       0.10388149       2.83622709      -1.80791838
I        5.96664544      12.94597504      16.22959792      -0.10658239      -0.04284290       0.08294316      -0.29917954      -1.15625225       5.26207005
I        6.68928032      12.90230452      22.51929244       0.07194629       0.03234361       0.30250677      -1.95498831       4.58185002       0.15298952
N       17.01238907      17.14433761       2.99697536       1.51544086      -1.28281397       1.52414401       0.34699354      -0.40992014       0.03048608
C       16.09389602      16.05046771       3.44467813      -0.83182963       1.68613353      -0.44828015      -0.14349956      -0.33992770       1.23090118
H       15.96833612      15.34523463       2.67787183       0.20036402      -1.23956556      -1.22734093       0.11759557      -0.12164967      -0.12752166
H       15.12626748      16.49180034       3.55741995      -0.84591050       0.40785441       0.56633030      -0.10016809       0.16008247      -0.18608737
H       16.44070687      15.60221192       4.35478681       0.35956924      -0.21978012       0.62525720       0.00875636       0.00271750       0.17021285
C       18.25046603      16.41078097       2.53261018      -0.82045880       1.55972591      -0.25033140       0.17670540       0.17088675       0.02709738
H       18.50249185      15.72398711       3.29246700       0.09229643      -1.26582030       0.83908428       0.23144478       0.18534494      -0.05946855
H       19.02198949      17.14361898       2.58138602       0.95152732       0.68371218      -0.55082449      -0.00501097       0.23730985       0.02509707
H       18.07762303      15.96910697       1.54702440       0.02655798      -0.00004885       0.09372365      -0.15842409      -0.11369045       0.26813529
H       17.25817478      17.65939675       3.91430563      -0.25959427       0.08293250      -1.11792343       0.01805710      -0.02037309      -0.11778862
H       16.71320158      17.85957289       2.30224305      -0.47119950      -0.37885078       0.03724357       0.08761671       0.06079056      -0.07796609
N        9.28716476      23.61743325       9.93862629      -0.27802944       0.45955166       0.34849877       0.28190983       1.09580815       0.19918301
C       10.60850748      23.02533085       9.91102908       1.69631448      -1.77128710      -0.80384672      -0.42299785       0.25061698       0.92537881
H       10.58704854      21.90486218       9.72568097      -0.54465806       0.93064187       0.46278853      -0.10527914       0.11636526      -0.24968389
H       11.17275032      23.19155085      10.81907081       0.09801411       0.32486563       0.35422001      -0.15200294       0.13349636      -0.01569462
H       11.16982722      23.37115905       9.02815469      -0.11457823       0.42227051       0.21289344       0.13068069      -0.05657091       0.01195783
C        8.50470876      23.06965695       8.83822310      -1.21299916      -0.01970267      -0.31743872       0.85373710       1.00228290      -0.71823789
H        8.94589484      23.43276804       7.90492299       0.11184848      -0.48981814      -0.12514883       0.18257070      -0.11949705       0.00155176
H        7.52106183      23.52476754       8.91888006      -0.40907974       0.05469432      -0.16680562      -0.17925309       0.13132854       0.19957326
H        8.36128347      21.97142350       8.96746751       0.50301145       0.52010535      -0.35208108      -0.13867231      -0.04639040      -0.03155768
H        9.29660591      24.66279698       9.86500799       0.13596681      -0.31008767       0.07358360       0.28970063       0.23789639      -0.30148983
H        8.79132378      23.42301634      10.81808743       0.03111496      -0.10669823       0.31900776       0.01732541       0.19529250       0.32409549
Cs      10.38992194      16.38856585      10.13267568      -0.26398564      -0.07314809      -0.02928144       1.74983123      -1.04560728       0.95397204
N       17.22262788      22.81877548       2.80542388       1.26978784       1.25441383      -0.56138402      -1.01553261       0.85837481      -0.13199865
C       16.14127340      22.55864182       1.77704928       2.17189194      -0.84228500      -1.47496705      -0.28613377      -0.29148965       0.43592737
H       15.20540477      22.38835853       2.28972815      -0.44704203      -0.00119137       0.18423957      -0.00411132       0.01089806      -0.19969836
H       16.46699984      21.60061347       1.15571200      -0.75347331       1.88904952       0.99180421      -0.24001869       0.03875517       0.14680847
H       16.14606678      23.49894507       1.14871938      -0.37129938      -1.02458135       0.27387410       0.22954284       0.36867644       0.25360191
C       16.88745117      24.04951672       3.60378376      -0.56570896      -1.85413273       0.58923121      -0.40347125       0.65110093       0.39240705
H       17.06186297      24.92185050       3.05893744       0.43144059       1.50018352      -1.17941698       0.11775745      -0.05728233       0.12842485
H       17.39504516      24.06537308       4.54870816       0.66396984      -0.04201870       0.48073920      -0.17582210       0.03172581       0.03678262
H       15.84111627      23.95808030       3.81382901      -0.87003526       0.12094905       0.16860961      -0.07927180       0.05097326      -0.01377174
H       18.20209509      22.95394518       2.38365042      -1.20734578      -0.02929004      -0.16886085      -0.05316996      -0.08416518      -0.04483760
H       17.39558247      22.05123278       3.43791556      -0.41233720      -0.98013836       0.63195062      -0.07816353       0.33884535       0.11095029
Pb       6.50406085      19.65752623       6.39502624       0.01015168       0.10081935      -0.13177611       0.45598796       0.29527079       4.12541027
Pb      13.26747743      19.52496815       6.23309491      -0.20655783      -0.04591338      -0.17553132       2.26110713       0.30836346       1.36092334
Pb       7.05399711      19.63726209      -0.07821857      -0.26124197       0.05056044      -0.20593387      -0.25984946       0.95580668      -0.54973693
Pb      13.25996704      19.31973261      -0.24992072      -0.01020494      -0.05072384      -0.07453434       2.19974251      -0.85188013      -0.77555224
I       10.16318676      19.85821579       5.26310352      -0.05698201      -0.10030082       0.28480892      -2.76197231       1.33683498      -0.56258811
I       16.39831094      19.62877821       5.21004866       0.33170129       0.10436872       0.27913301      -0.12192917      -0.04559853      -3.05340035
I       12.30408215      16.27714685       6.40255543       0.07150508      -0.00547797      -0.01905240       1.52780832       0.80700600       2.62854153
I       13.32947009      22.75239635       6.40763354      -0.02849445      -0.11393576      -0.03635425      -5.47618219      -1.77705862      -0.65921068
I       16.53350122      18.89921031      -0.36504207      -0.19514280      -0.04097074       0.09501740       0.76942505       1.38134761      -3.31884231
I        9.91126393      20.96927570      13.39853999      -0.03614585      -0.21543595      -0.09917991      -1.61795540       0.91219756       0.88533686
I       13.22897016      23.19598805      13.33621057       0.11200689      -0.05180029      -0.11780100      -0.74610052      -0.22580142      -1.33631664
I       12.13318146      16.21731902      -0.23861624       0.11822104       0.26199030       0.06257041       2.87621704       0.14882163       0.02464029
I       19.50121454      20.01107919       9.36892060       0.00714498      -0.11050118      -0.24460805       0.02843745       0.98167338      -0.97608065
I        6.57619684      19.98042626       3.14786934       0.17724803      -0.06888968      -0.04218049       4.30174141      -1.17153316      -3.33303856
I       13.23713768      19.43188228       2.97554269      -0.02311212      -0.07261672      -0.27947645       0.50020570       0.86360766      -1.33362365
I       12.80576946      19.07211937       9.40156309      -0.05519263       0.21195280       0.18874617      -0.46933726      -0.88001672      -1.19865627
Cs      16.76208283      16.54262739      15.60620191      -0.29984010       0.19310717      -0.07488637       2.18026752       0.53396606       2.15147375
Cs      10.07424238      22.84586669      22.79975943      -0.07870979      -0.09755901      -0.05950083       0.80347911       1.51740782       1.49304797
Cs       9.84819255      16.08641761      22.40591665      -0.25720649       0.12994476       0.14431353      -0.64140476       2.14207069      -1.73545664
N       17.10771377      23.20353799      15.96116095       0.56479794       1.07232926       0.16350698       0.78565384       0.06550152      -0.85619652
C       16.69700557      24.65189654      15.89780292       0.29570540      -0.43624329       0.43711840       0.03216483       0.22429528      -0.05367370
H       16.88102645      25.13818500      16.84205343       0.20941999       0.07749056       0.66736317      -0.08689818      -0.04559286       0.04726508
H       15.62814521      24.73274799      15.72099597      -0.12242007      -0.13740827      -0.55002190      -0.15718770      -0.08118920      -0.22406771
H       17.35967736      25.07251203      15.16238040      -0.09572286       0.70206220      -0.60789817       0.02426097      -0.29927164      -0.20146842
C       15.98455167      22.31879213      16.07732068      -1.50281625      -1.22585728      -0.86390297       0.18557796      -0.52959487      -0.20840227
H       15.56973421      22.09973233      15.08349356       0.34691163      -0.32756898      -0.07982503       0.08560419       0.05920839       0.27373299
H       15.14454854      22.74682405      16.56979092      -0.63263191       1.31696221       0.68121943      -0.14638950      -0.25108227       0.02758240
H       16.12365551      21.44478008      16.69030298       0.87284050      -0.70619880      -0.09651526       0.10667456       0.18832824      -0.06118762
H       17.76854055      23.03598961      16.73721372       0.18337417       0.15971870       0.60683634      -0.16846358      -0.32164613       0.08262694
H       17.67331692      23.06998383      15.11159644      -0.05493858      -0.52942466      -0.47428178       0.28519203      -0.04060374      -0.35900669
Pb       6.37039300      19.81903437      19.50732707       0.28048292       0.00849032       0.24417187      -1.43711308      -2.28600614      -4.62781143
Pb      13.14005809      19.38888371      19.31985190      -0.37747446      -0.07305491       0.10878497      -2.49991632       2.57053872       0.57069930
Pb       6.50836643      19.65858100      13.03456946       0.01839133       0.32348505      -0.13463002       3.18369532      -0.45350005      -0.86866107
Pb      12.90676727      19.92456085      12.47004784      -0.04512140      -0.00953205       0.21847022      -1.71615367       1.85745459      -1.42925104
I        9.73842952      20.17441826      19.75553483       0.02565030       0.07704380      -0.06085994       0.20905733      -0.86894844       1.41939959
I       16.22102978      19.49788755      19.28593043       0.11561652      -0.12993699       0.02627512       3.47762230      -0.25204116       0.43015683
I       11.61314190      16.50247160      19.26267900       0.27696965       0.01921243      -0.01208598      -0.31288044      -3.65892111      -2.32129383
I       12.99691820      23.51770759      20.24798955      -0.10367514      -0.38657804      -0.22426988      -4.67634197       0.21990659      -0.64870917
I       16.04728699      19.36962145      12.26496743       0.25072420       0.06753713       0.22051304      -0.01937067      -0.86379229      -0.85054637
I        9.96891226      19.77506323      26.08942472      -0.05768798       0.06658667      -0.07650970       1.93222813       1.47002983      -0.47557594
I       13.52200991      23.13333942      24.66059331      -0.09374219       0.04028076       0.16192599       1.92213573       0.11134315      -2.72942405
I       13.04745226      16.57823503      13.04417262      -0.05561117       0.09508911       0.02480129       0.59119515      -3.56456698       1.53775144
I       18.68061994      20.68423277      22.85584264       0.03254795      -0.12970381      -0.38006957       2.55163404      -0.61204236       1.46830684
I        6.74443033      20.76368209      16.55249879      -0.07595427       0.00753363      -0.11535476       1.33093972       0.45944012       1.23129628
I       12.87610307      20.05008108      16.37027243       0.00694776      -0.14996453      -0.15932029       1.53379607       1.58960684       1.80635081
I       12.81058718      18.92454077      22.52099220       0.12779227       0.02148825       0.22364620      -1.32644222      -0.07718257       0.09012077
N        9.28176075      22.57402202       3.41813017       1.13499851       0.34881830      -0.65582160      -0.49414628      -0.31269659      -0.57015233
C        8.67207199      23.72560328       4.07746385       0.92484607       1.00126316       1.25555525       0.08400008       0.55983603      -0.40008709
H        8.08404386      24.35679798       3.41407842      -0.45263392      -0.41054169      -0.39044323      -0.07526587      -0.11976235      -0.05773371
H        9.46485864      24.42125590       4.43888571       0.12320662      -0.50186965      -0.22601080      -0.07584105       0.03094567      -0.26102334
H        8.14448975      23.41649624       4.98795962      -0.30345069      -0.12105041      -0.22433099       0.28692739      -0.03956569      -0.09262159
C       10.25943912      23.00977498       2.35634289      -1.44184874      -0.85702130      -0.87237519      -1.33099911      -0.19572169       0.13580186
H        9.65789805      23.67690698       1.70134461       0.83252089       0.02448099       0.26514595      -0.28995977       0.07533067       0.07588509
H       10.58407205      22.13666797       1.77351913      -0.27745921      -0.06604242      -0.02052392      -0.00492245       0.10960518       0.06367274
H       11.14618917      23.36688498       2.80375940       0.85066632       1.18482276       0.62663582      -0.13827434       0.13124464      -0.04163184
H        8.57265200      22.06616638       2.88689791      -0.48261741      -0.73932798       0.30777458       0.00885289       0.02381685      -0.09722803
H        9.79648300      21.90165640       4.09019462      -0.71411726       0.22390036      -0.27488325       0.15399975      -0.11767211       0.03654979
N        3.62576064       4.00580677      10.05417063      -0.91923195       0.95522217       0.51205285       0.21732644      -1.16387264      -0.11324352
C        3.34891253       3.54501893      11.43915742       0.67871131      -1.22252774       0.36190824      -0.14020094       0.03736569       0.82840807
H        2.70256284       4.20810990      11.95951088      -0.78720572       1.25282779       0.09380030      -0.03928521      -0.01097331      -0.04193690
H        4.25262889       3.53553720      12.08402934      -0.14718682      -0.41687569      -0.64572417       0.01304764       0.20717257       0.06674609
H        2.76659110       2.60100420      11.40496060       0.75158618       0.01221108      -0.08192981      -0.16875438      -0.11520462       0.09572268
C        2.30845575       4.15070343       9.33859364       0.04006850       1.30191558       0.05614805      -0.01262356      -0.04479465       0.34568494
H        1.64530392       3.40661442       9.82590172       0.06577063       0.37506468      -0.72207542      -0.41572679      -0.07141489      -0.02290385
H        2.38496487       4.08909101       8.21768344       0.07525398      -0.25930898       0.96500563       0.07760477       0.06168635       0.12663922
H        1.98194089       5.20596137       9.59326360      -0.18248141      -1.05016494      -0.25637049       0.22933598      -0.23707555       0.14992132
H        4.24160087       3.42611125       9.51904715       0.71772145      -1.14486540      -0.35248779      -0.19899439      -0.09952187      -0.18567474
H        4.16063566       4.90286878      10.11210009      -0.07012315       0.09844535      -0.10905218      -0.27108516       0.39821299       0.05170277
N        3.10168803      22.94754364       8.80336252      -0.59191308       0.68071347      -0.19557955      -0.59085422       0.51401672      -1.20895727
C        3.22272175      23.78887954      10.08712623       1.73854147      -0.59987890      -0.73760382      -0.08820718       0.68553144       0.24999765
H        3.90786797      23.22819414      10.77874749      -0.34611768       0.70823328      -0.53962352       0.04858445       0.25973792      -0.00507435
H        2.25138261      23.79967251      10.48384446      -1.52072999      -0.06711377       0.86609923       0.07754154      -0.16380798      -0.12881966
H        3.48707606      24.86298489       9.89278714       0.26650173      -0.99161542      -0.12481500       0.05039162       0.26693452      -0.06030644
C        2.50312843      21.57461745       9.00617287      -0.14533383       0.32293605       1.14588192       0.46322450      -0.85117115      -0.11725641
H        1.98540860      21.29984562       8.09239501      -0.00545110      -0.29751564      -0.29799859      -0.01981223      -0.07002659      -0.05105011
H        1.75187242      21.63515343       9.84005687       0.62009891      -0.03460997      -0.54091585      -0.02084409      -0.16348284       0.08330798
H        3.31438637      20.86479834       9.27858083      -0.38344293       0.29181358      -0.11908417      -0.17223476      -0.10908150       0.17567886
H        4.00542855      22.77864578       8.29013374      -0.40999651       0.70077093       0.17072609       0.00899849      -0.07851848       0.12970746
H        2.42555471      23.49630886       8.18510018       0.97856755      -0.67735342       0.24278405       0.21115827       0.04577755       0.02789053
N       10.49485439       3.09118616       3.11703813       1.39434612      -1.72253780      -1.64731423      -1.13061850       0.07133768       0.18787115
C        9.38119681       3.93582365       3.47180218      -0.74005821      -0.26510704       2.06105717      -0.32142433      -0.58987426       0.75296662
H        8.62428023       3.42467462       4.14627736       0.83272011       0.15651591      -0.71638348      -0.10312191       0.11952687      -0.06735026
H        8.90347364       4.22336268       2.56620560      -0.55546073       0.70479948      -0.76440375      -0.01861462       0.02263379      -0.08629103
H        9.81425863       4.72994018       4.05247802      -0.09095147       0.96200212       0.14717304       0.06686556      -0.04537053      -0.11174958
C        9.98047105       1.91921863       2.27852519      -1.74618289      -0.16423846       2.50884030      -0.07518399      -0.27883505      -0.16135244