720
Lattice="26.379566196786893 -0.24067785147576365 -0.040334947750560866 -0.2329331887390015 26.47329037069281 0.06322833948526947 -0.04295135034057037 0.050632094887419016 26.276566954381895" Properties=species:S:1:pos:R:3:forces:R:3:momenta:R:3 energy=-3006.08544921875 stress="0.0007426571100950241 0.00036010623443871737 -0.00038176862290129066 0.00036010623443871737 0.0010946854017674925 -7.837778684915975e-05 -0.00038176862290129066 -7.837778684915975e-05 0.0011930617038160563" pbc="T T T"
Cs       9.36740255       9.62199941       3.11109933       0.11543000       0.01229631       0.09492597       0.14197060       0.91906946      -1.89359823
Cs       2.98430012      16.14853142       9.59764699       0.04066421       0.04966003       0.15178832      -1.57636948      -1.71082248       0.24120058
N        2.94889129      10.01902374       9.72869040      -2.36693952      -0.12765161      -0.38343362       0.28130624       0.36870519      -0.35750007
C        3.64955846       8.79556222       9.43110949       2.21457696      -0.30025158      -0.25991083       0.36609506      -0.17401337      -0.21005760
H        3.66624413       8.68992949       8.34908539       0.43063924       0.04873400      -0.32667080      -0.02616018       0.27848101       0.02602084
H        3.06566938       7.93189834       9.73246017      -0.03745983      -0.24247676       0.73890391       0.16461248      -0.01735862       0.02763344
H        4.73783463       8.85459068       9.87963995      -2.00270467      -0.33781166      -0.76445710       0.07189147       0.09256093      -0.00961230
C        3.12697568      10.41176390      11.14114495       1.67829519      -0.11861741      -0.36786276       0.04935895      -0.55762773       0.18993580
H        2.72747679       9.69843909      11.84586398      -0.27239682      -0.55535173      -0.00438581      -0.36894022       0.14189810      -0.07941104
H        2.71284185      11.37044949      11.32720899      -0.63772822       1.00019549       0.08476927      -0.10796742       0.04114342       0.13243750
H        4.24273274      10.48244016      11.24736919      -0.72804329      -0.05446640       0.32275780      -0.01654694       0.09501042      -0.36295014
H        1.90478912       9.87524072       9.33686827       1.32307505       0.44850202       1.02039686       0.00092484       0.31863999       0.05270403
H        3.28525567      10.78316867       9.12544941       0.24443543       0.38746207      -0.22556338       0.21544045       0.27970177      -0.17542057
Cs      10.20231360      16.57399883       3.62242843      -0.19004708      -0.09273964       0.03262011      -0.12432068       0.25065138      -0.84501148
Pb      -0.50514935      13.24160006       7.00550174       0.39856473       0.00858918      -0.05742359       2.63171217      -2.88160763      -1.09714553
Pb       6.49989377      13.26304021       6.81265882       0.02910825      -0.16713806      -0.06051042       3.94911920      -2.13083173       1.59047427
Pb       0.21409461      13.34189604       0.81793881      -0.10971371       0.16596151      -0.20334888       0.07599459      -1.07169703      -1.34012241
Pb       6.81982175      13.28269753       0.19449904      -0.01039706       0.07714467       0.09965601       2.03383846      -1.81822825       0.62162990
I        3.33501223      12.98284551       7.60620698       0.11012628       0.11381869      -0.17398727      -0.97021725       0.35840512       2.42806923
I       10.16010883      12.54473466       6.61319085       0.02106611       0.04942347      -0.03350409      -0.13890648       0.39432030      -0.10603971
I        6.35409176      10.01626637       6.06076514       0.04495614      -0.17065676      -0.02656097      -0.58406233      -1.28964074      -0.18531572
I        6.76227174      16.31032986       7.33069656      -0.24507087       0.21743329      -0.36154978      -1.90320577      -2.07759804       1.34445043
I       10.13757716      12.77278453       0.45953781      -0.54036717      -0.01628859       0.11696447      -1.67716599       0.83039647       0.26230884
I        3.04990724      14.07916069      13.03168097      -0.20732054      -0.16101360       0.03997610      -0.22442130       2.10644919      -0.76175974
I        5.94417361      16.37675296      13.20608483       0.05001460       0.04512832       0.13028726       0.42185332      -0.63133230       0.67440957
I        6.60444557       9.57160897       0.63248107       0.02177427       0.23058932       0.18061832      -0.86525736      -0.61723581       1.00638559
I       13.07106520      13.15175210       9.71142735       0.02258042      -0.23711620      -0.14971700      -0.88780358       0.06014052       1.03918802
I       -0.71234155      14.12275968       3.75986516       0.07732402      -0.20167721       0.03039510       0.79043979       1.14910172      -3.98235456
I        7.18990543      13.73964640       3.57411478       0.05147610      -0.12323763      -0.02612221      -1.04929357      -0.68982406       1.08112365
I        6.48054683      13.22345829      10.12028382       0.01471384      -0.12204338      -0.01948206       1.24040614       0.55977643      -1.31219720
N        8.87260935      10.49159006      16.59015188      -0.11692988       3.52911620      -0.20509820      -0.82608324       0.29197289      -0.43418133
C        8.77077888       9.25035744      15.86375827      -0.79582180       0.44023664      -2.40436271      -0.29580339      -0.74112994       0.64165636
H        9.02372753       9.46777543      14.77263475       0.22176085      -0.49896911       1.22487275      -0.22109175       0.18952833       0.14120754
H        7.72496375       8.94057192      15.81499756      -0.16036641      -0.19449165       0.30611280       0.01392058      -0.03497954       0.18011924
H        9.35052197       8.52151530      16.38042560       0.75801477      -0.82367953       0.07142761       0.24268288       0.07594947       0.00448857
C       10.15201601      11.28525347      16.39042532       1.52774959      -1.89594614      -0.05148338      -0.37304957       0.93297471       0.03753924
H       10.43152613      11.19365940      15.30697208      -0.10674066      -0.32408993       0.70492036       0.02511183      -0.03419048      -0.26380651
H       10.92698247      10.77414037      17.06918295      -0.83763387       0.85214077      -0.94952980      -0.00901265      -0.07114191      -0.14794765
H       10.11159755      12.36600379      16.54223408      -0.52853787      -0.08008388       0.63301790      -0.03517466       0.06865411      -0.03778471
H        8.73062363      10.31197487      17.57291173      -0.14968104       0.00588401       0.81322455       0.14210916       0.20032179      -0.20369525
H        8.15568279      11.26389278      16.34041435      -0.07436806      -1.31084985       0.15253977      -0.14717024       0.09804976       0.29018572
N        2.81575259      17.09501790      23.05522137       1.73080677      -0.31107443       0.35331905      -0.81172187       0.83343770       0.19917636
C        3.14033318      16.46512357      24.39986682       1.32533300       0.62155880       0.36856160       0.49952673      -0.47057473       0.60473607
H        4.02588238      15.80452193      24.28674414      -0.12728462       0.41803091      -0.23252609      -0.03240432       0.24624519       0.11043679
H        2.33535535      15.79980799      24.61450690      -0.94997901      -0.42779459       0.46339392       0.12663302       0.12878819       0.09333617
H        3.38304342      17.18453522      25.26168358      -0.62058179      -0.57630810      -1.29037684       0.14839392      -0.03967344       0.28653666
C        2.87198403      16.07545723      22.00633585       0.84055328      -1.42866917      -0.37012403      -0.11039485       0.25282448      -0.36963081
H        2.54414146      16.36108484      21.01271477      -0.40841966       0.64539076      -0.11280748       0.20899732      -0.11240630      -0.00383270
H        2.31526740      15.16510224      22.29894136       0.14759589       0.35573917       0.11773563      -0.03833581       0.07801090       0.25007034
H        3.94473037      15.85052425      21.88645887      -0.16014800      -0.40123352       0.03337972       0.03831660      -0.26371691      -0.27202793
H        3.54244439      17.81373212      22.79687361      -0.33258571       0.03869486       0.44895919       0.07620886      -0.17020584       0.00903193
H        1.90992125      17.50019667      23.05324494      -1.49806905       0.97762660       0.21825545      -0.22207897      -0.36157581      -0.24192189
N        2.62064326       9.99842533      23.72478889      -0.65135600      -0.58362893      -0.04684701      -0.79645955       0.10847834      -0.03720209
C        2.24954152       8.96789890      22.68903883      -1.13946957      -0.01944029       1.63169962      -0.23505282       0.02990347       0.50547002
H        2.02048045       8.02890732      23.34412177       0.60468434       1.04601992      -1.65415741      -0.10860151      -0.10190871      -0.43289993
H        3.04571510       8.95605083      21.96073717       0.41202855      -0.59271549      -0.28517804       0.00495904       0.27776435       0.21238313
H        1.31558584       9.32035826      22.22260280       0.13715220      -0.24116834      -0.05094161      -0.07293022       0.03472962      -0.18980909
C        3.88600506       9.62856014      24.38598807      -0.55421227      -1.48977796       0.92159439      -0.19485427      -0.69090208      -0.44406417
H        3.74575596       8.56365014      24.72753714       0.24769153       0.72128656      -0.21785837       0.26900674      -0.17214609      -0.15777423
H        4.00430029      10.22541816      25.29432931       0.31581993       0.30199946      -0.17010820      -0.05617111      -0.11335055       0.03550715
H        4.73207461       9.64923219      23.68815685      -0.19082948       0.35316963      -0.00307649      -0.05112313       0.11952303       0.14212790
H        1.77305609      10.03500513      24.35613936       0.57363633      -0.14226686       0.50058594       0.01863986      -0.12167898      -0.13284954
H        2.66377239      10.95586754      23.40829480       0.16137690       0.75430454      -0.90770423      -0.23709819       0.37900411       0.04299057
N        8.78477263      16.32458694      15.83317651      -0.19634678       1.09139304      -0.41530958      -0.46304701       0.05600348       0.30405387
C        9.34492752      15.02301040      15.45040764       1.12985603       0.47313581      -1.67093537       0.10600151      -0.47850770      -0.74139072
H       10.41828870      15.14848533      15.47006051       0.69838929       0.06983869      -0.32033943      -0.13447703       0.04635543      -0.02622675
H        9.03277796      14.76361224      14.40504186       0.04875973      -0.05815022       0.81995767      -0.00001584       0.12252044       0.11102056
H        9.17323212      14.26085724      16.16709748      -0.87549200      -0.79290584       0.82569064       0.19078865       0.16251549       0.32704658
C        9.28782841      16.81673632      17.19837672      -0.05012762       0.14551047      -1.14795012       0.93572608      -0.02695328      -0.44708032
H        8.96039985      17.85557757      17.41126992      -0.11384768      -0.50797219      -0.20224048      -0.07473652       0.15247441       0.13977197
H       10.37243609      16.80068101      17.11241222       0.24628623       0.00218718       0.21533609       0.14434338      -0.11897678       0.35662928
H        8.91871579      16.10020686      17.93461261       0.06086184       0.04123153       0.19952802      -0.22739329       0.32912931      -0.13755259
H        7.79101398      16.12928933      15.92355961      -0.76426190       0.50908881      -0.04554051      -0.14304119       0.14382139       0.03504189
H        8.91795698      17.03749864      14.98931781      -0.14522867      -0.83637014       1.61823913      -0.05576254      -0.09930579       0.13434709
Pb      -0.09684247      12.76672779      19.79476058       0.08317381       0.02995237       0.13017716      -1.71382361       1.10128988       2.37848504
Pb       6.46280039      12.65107833      19.72906429      -0.06971233      -0.08813399       0.77460237      -4.27903100      -0.80314605       2.74078340
Pb      -0.15828136      13.42887567      13.28604526       0.00245777       0.05390058       0.02329560      -0.03702870       0.97423626       1.22623324
Pb       6.08584660      13.23333702      13.15345986       0.09375602       0.02429910      -0.03140749       0.45753805       1.55630761       2.11692697
I        3.26330957      12.33955505      20.20348291       0.02514707       0.19670039       0.11815344      -2.21715244      -1.21928025      -0.59519157
I        9.83353071      13.30684047      19.74903641      -0.40942991      -0.06958146       0.08433161      -1.27108173      -0.55297734       1.56656382
I        5.97845645       9.42009555      19.86981633       0.15215436      -0.06921007       0.04799936       1.53194356      -1.22630090      -1.26086722
I        6.21432010      16.45668107      19.55000387       0.02868431      -0.42770312      -0.01148830       0.09115702       1.52078255       0.85865202
I        9.66007550      11.99159262      12.76947352      -0.01411057       0.26578017      -0.16241674       1.35693386      -1.11140022       0.47999554
I        3.40453782      12.91545788      27.02060373      -0.07454122       0.18132183      -0.00171479      -1.89702915      -1.28361931       0.52585280
I        6.58401917      16.53502402      26.93455642       0.14836887      -0.34657209      -0.01602540      -1.03646791       1.44551477       0.09461230
I        6.62906979       9.46336251      12.78091771      -0.17296909      -0.07872622       0.01866210      -4.57678095       0.67145067      -1.09722994
I       12.32133533      13.31399833      23.15509359       0.10876424       0.06726132       0.08846486      -2.73783550       0.96122117      -3.27729600
I       -0.37315620      13.43546725      16.42024896       0.17969890      -0.21106771      -0.04072369      -1.11610813       1.18230892      -0.37717115
I        6.33765264      13.00124455      16.94467507       0.03202001       0.05670976      -0.82925590       2.77962993      -0.40387439       1.44041713
I        7.31759294      14.30785386      23.52029925      -0.08417649      -0.18115971       0.08927740       1.06010330       0.79963261       1.85599947
Cs      15.93058567      16.61719352       3.19913903       0.07943239       0.01489902      -0.10325499      -1.10275797       0.40106921      -4.90565032
N        9.46912455      22.61975786      10.38705612       1.02582909       0.42591383      -0.58786030       0.79889769      -0.15020444      -1.20940508
C        9.42678568      23.52959441      11.53931865       0.13487354       0.73690841       0.60728311      -0.68624447      -0.84269919       0.29821728
H       10.25069423      23.39433592      12.24270892       0.15946028      -0.53835988      -0.03571836      -0.10003150      -0.18040510      -0.10671015
H        8.47935601      23.36675976      12.05124513      -0.17975041       0.21284943       0.17283623       0.09878557      -0.09938070      -0.02870789
H        9.55791811      24.57529292      11.19930674      -0.46639273      -0.34990189      -0.14513497      -0.03054348      -0.11780425       0.20706976
C       10.27366795      23.24598504       9.26137701      -0.51238463       0.46065865      -0.13700873       0.13280378      -0.41114813       0.23385760
H       10.40374985      22.53135841       8.45167100       0.24655806      -0.30645438       0.06251185      -0.24264408      -0.24223300      -0.06622025
H       11.22631075      23.65643860       9.63989435      -0.15914875      -0.48091950       0.11881260       0.10157945      -0.05424455      -0.25068734
H        9.71382279      24.10135946       8.84802920      -0.13477021      -0.15186295       0.24433795       0.00826889       0.05556158      -0.06968864
H        8.48484638      22.43379569      10.12333731      -0.07993149      -0.29318598      -0.48260994       0.08672942       0.04520877       0.08943592
H        9.91249269      21.70848158      10.60358677      -0.12557954       0.09332144       0.11206623      -0.14625234      -0.21231721      -0.24110512
N        9.27882367      16.67956515       9.53285722       0.82448850       0.03795197       1.06860347       1.05435125       0.07469229      -1.18238767
C        8.20701856      17.17727879      10.43082973      -0.99157424      -0.88964480      -1.41403344       0.12201384      -0.91593896       1.05831755
H        7.75513479      17.98774294       9.87901200      -0.27616104       0.59881387       0.23138277      -0.11759151       0.30730223       0.19900525
H        8.54223082      17.40425386      11.40896441       0.92622397       0.52667986       0.87052374       0.20621017      -0.41733194      -0.16345045
H        7.44712041      16.38809520      10.53861393       0.13946426      -0.09669742      -0.15722352      -0.09678858      -0.04826502      -0.09082184
C       10.06968317      15.58926501      10.09723242       0.11113834      -1.19149602       1.12044324       0.01308098      -0.20387920       0.25552316
H       10.37784140      15.78338020      11.14818735       0.16542611       0.28305821      -0.78125393       0.07604257      -0.13867921       0.05498104
H       10.82956218      15.29273859       9.40208599       1.25196164       0.59842739      -0.29224716       0.26953890      -0.18582240      -0.05890907
H        9.55780741      14.62459233      10.09963131      -1.06431525       0.13714676       0.26588790      -0.01377342       0.10465468       0.09864882
H        9.90393457      17.45364516       9.23955827      -0.12022074       0.05621922      -0.09099063      -0.15318226       0.25550303      -0.08802850
H        8.86446944      16.29708943       8.68034424      -0.66620206       0.05415633      -0.83932249       0.17060644       0.27661726       0.05885523
N       16.95670827      23.62762035       3.84271644       0.34864046       1.59010191      -0.89465521      -0.31074616      -0.14640206       0.13514810
C       16.40531041      22.28897690       3.52254032       0.27419298       0.61821231       0.00468916      -0.46045564       0.35281233      -0.59372273
H       15.35767685      22.39429475       3.80769841      -0.42431937      -0.50626715      -0.50301054      -0.07998793      -0.03504197      -0.10474712
H       16.86198352      21.52190393       4.15315429       0.17514240      -0.03447209      -0.05611129      -0.02742048      -0.07591459      -0.07429113
H       16.62537484      22.15515030       2.45401177      -0.45932533      -0.44431898       0.13942365       0.10693431      -0.06779165      -0.24304847
C       16.56113918      24.74341452       2.81769213       1.34647418      -0.50448150       1.01023076      -0.12471609      -0.86867208       0.65761522
H       16.66679249      24.23053779       1.86738611      -0.12953041       0.24495318      -0.48601783       0.31123303       0.08951355      -0.09204010
H       17.22769823      25.65523634       2.88605095      -0.31903556      -1.06067395       0.06525687       0.02662860       0.35738890      -0.27624423
H       15.56210208      25.02461144       3.04966388      -1.12001175       0.18339438       0.02050826      -0.11970154      -0.13436829       0.03875586
H       17.97862814      23.69772302       3.87636174       0.61714090      -0.63380048       0.10481409      -0.04815235      -0.03419742       0.30679424
H       16.67528216      23.86914528       4.78401079      -0.39453412       0.55882087       0.75779945       0.26821636      -0.46926069       0.00667147
Pb       6.14304825      20.03579180       6.87200398       0.15051949      -0.00451360      -0.19786952      -1.27455246      -1.84027164       0.67227054
Pb      13.56509170      19.52750127       6.31468150      -0.36991434       0.21338625       0.19428530       0.27599093      -4.16814986      -2.16286587
Pb       6.56423240      19.44913892       0.36093925       0.04179563       0.26966411      -0.51168548       2.23118436      -5.65313303       0.13966640
Pb      12.99983980      19.82382809       0.19571765       0.06540651       0.16361335      -0.31414227       6.93272147      -0.06945322      -0.64586780
I       10.38898684      19.29019431       7.02746173      -0.14906673      -0.10166287      -0.07612700      -3.18221217       1.26122441       1.62711790
I       16.70009094      19.33746427       6.62382738       0.24142168      -0.12165355      -0.06501675      -1.75871110      -0.65071885       3.49566379
I       13.02308793      16.36768840       6.65786117      -0.11006828       0.03036286      -0.12645591      -0.85748686      -0.03861474      -1.11763032
I       12.99111382      22.73111272       6.38805467       0.18050476       0.31948599      -0.03943032      -0.98455069       1.53692470      -0.71086377
I       16.30527127      19.65523143       0.75782502       0.02585250      -0.10869087       0.02268974      -3.35036827      -1.09601137      -0.39211683
I        9.37767880      19.20955757      13.50330573       0.03337201       0.17460205      -0.01884112      -1.69984419      -0.10836793      -0.10673431
I       12.99236947      23.25668818      13.02710539       0.04567599      -0.17103558       0.07141506      -0.12440645      -0.85686286       3.44170672
I       12.79969706      16.46909257       0.05375821      -0.16328278       0.31197765       0.02078504       0.34112648      -1.98589465      -1.14005802
I       20.28720132      20.71217169       9.60455736       0.00424816      -0.15238474       0.12777790      -1.66592614      -0.51508247       1.98694586
I        6.97146522      19.57495197       3.28055728      -0.05530730      -0.10715992       0.52030314      -0.29859437      -1.95140367      -2.88000288
I       12.58308784      19.46497013       3.18945059       0.06547301      -0.03528240       0.19261434      -1.33595199      -1.86203695       0.21534290
I       12.78910446      20.42413580      10.03991563      -0.00819033      -0.20768668       0.25233411       1.58091891      -0.06710905      -2.29854633
N       15.50379671      15.89863921      15.77468079      -0.87271234       3.14400720       0.08013843       0.61118507      -0.44995943      -0.28461926
C       15.98942676      16.41652618      17.09126303      -0.75920552      -1.86190594       0.19190096      -0.31673498      -0.44038904       0.24326027
H       16.91901607      15.90562843      17.26864231       0.73201404      -0.00566125       0.24256203       0.07671300      -0.07000601       0.23593851
H       15.31046721      16.16421149      17.91535348      -0.15096129       0.03495882      -0.22672020       0.35751234       0.08862831       0.00260894
H       16.07959816      17.46717810      17.01021993       0.35619483       1.32510724      -0.02368212       0.00165901       0.05148612       0.18796033
C       16.55199509      16.13004138      14.76929211      -0.23350622       1.68511614      -0.10914838       0.42531756      -0.07433165       0.59182678
H       17.46775846      15.66885617      15.08224666       0.64377215      -0.41863198       0.15624643       0.19930811       0.24500343       0.01339102
H       16.69513051      17.23902576      14.62074284       0.01521832      -0.72065838       0.45549078       0.17703992       0.30110850      -0.21780420
H       16.21276621      15.80796661      13.81941365      -0.29246949      -0.80535728      -1.12060473       0.25599799       0.02374563       0.11333072
H       14.64614687      16.48830283      15.52379111       0.70475949      -0.36790315       0.02333955      -0.10506726       0.32975621       0.01345551
H       15.10261687      14.99182172      15.76492925      -0.20023204      -2.04584120       0.27261589      -0.01326814      -0.35627078      -0.30202539
N       10.42215869      22.49649147      22.39217744       1.07791320      -0.56224337      -1.53945317      -0.84185544      -0.18538146       0.28387480
C        8.97827584      22.32993288      22.76650375       0.32239628       1.24949825      -0.45010832       0.63146311      -0.94980387       0.04641071
H        8.25334013      22.32677555      21.91677611       0.84230473      -0.21071566       0.22775684      -0.17169285       0.41821018      -0.22455211
H        8.87442548      23.27611268      23.27764968      -1.03975172       0.15054838       0.69309317      -0.11463038      -0.25762262       0.04587069
H        8.90564977      21.46968972      23.41262584      -0.33265132      -0.33770803       0.36211778       0.20147537       0.23239775       0.01763802
C       11.25200235      23.54570739      23.09821654      -2.04608716       0.50352029      -0.22552389      -0.05658384       0.44528169      -0.15583793
H       11.37631714      23.19499464      24.13296196       0.53413867       0.20325027      -0.19828725       0.26088389       0.08690909      -0.13377001
H       10.61511596      24.44537430      23.08692000       0.16597735      -0.01078419       0.21271813       0.11985370      -0.08789136      -0.05722706
H       12.09798595      23.76703909      22.45867516       0.65284837      -0.23184999       0.31031642       0.25390884       0.05178755       0.30126100
H       10.55315424      22.60955503      21.34536067      -0.14500406      -0.12742060       0.78301171       0.17085768      -0.28908540       0.05193559
H       10.94035404      21.64923676      22.64115368      -0.02410553      -0.74314026      -0.35981626      -0.06780211       0.20442481       0.16421193
Cs      10.22779403      16.74988344      23.03508189      -0.02715995      -0.05629853       0.01403854      -2.06781124       1.48713140      -4.22332277
N       15.94967922      22.74925208      15.46558656      -1.27011704       0.26195300       1.72618840       0.49601392       0.01695595      -0.04562818
C       16.40451252      21.84642057      16.61598998      -0.37902235       0.60273859      -0.50162555      -0.71800837      -0.87992559      -0.72819032
H       15.54411016      21.30400696      17.02664789      -0.14445820       0.16467047      -0.16114397       0.27944018      -0.04738118      -0.08743615
H       16.84293203      22.48698823      17.40936166      -0.19554159      -0.12104385      -0.44089806       0.20181799      -0.09429690      -0.25793589
H       17.13582590      21.12654801      16.27787258       0.37970735      -0.21270475      -0.33249663       0.21874219      -0.03172249       0.04554271
C       14.97291388      23.77303913      16.04407390      -0.33373431       0.32914233      -1.12769348      -0.26058896      -0.30201818       0.76186149
H       14.10823163      23.31120252      16.54110203       0.45763580      -0.27024366       0.11526247       0.02146309      -0.05165916       0.24599173
H       14.55296850      24.34640814      15.19135512       0.25281903      -0.10740819       0.27222166       0.13942922      -0.01759954      -0.07879946
H       15.49356933      24.48640256      16.71787108      -0.01854432      -0.57383216      -0.14652576       0.42112043       0.12203191      -0.04170159
H       15.61076465      22.30724521      14.58048738      -0.28473205      -0.36586117       0.67059760      -0.03368182      -0.03906535      -0.12550584
H       16.70048155      23.33212939      15.09938008       1.26664584       0.29015072      -0.05253163       0.09516665       0.11115759      -0.01613186
Pb       6.22502369      19.34717641      19.76556196      -0.08640341       0.25979225       0.16655504       4.88746448      -0.33682515      -0.96193001
Pb      12.66204988      19.52767135      19.55844937       0.19821393      -0.02026159       0.05364993       1.91712403       1.47847970       1.65828189
Pb       6.18079041      19.93920131      12.86552849      -0.36441119       0.02753312       0.33966821       1.74534644       1.88153181       0.70703707
Pb      12.44139763      20.02513985      13.19255593       0.13765049      -0.11938716      -0.18249743      -0.79050989      -2.92158990      -0.92220391
I        9.42336665      19.28446312      20.17344068       0.17347952       0.11175555       0.02932526      -0.58007359       1.74235860      -0.92420968
I       16.34603708      19.28090535      19.53080143       0.01678650       0.17584467       0.06309611      -1.50744100      -1.66436006      -1.56264662
I       13.14500356      16.34361158      20.18463164      -0.17571267      -0.01809537      -0.00636260      -2.20008652      -1.75378574       2.69990123
I       12.61698349      22.82142975      19.31522821      -0.00840204       0.03292060       0.31492141      -3.85793982      -2.81245800       1.20438387
I       16.70578418      19.77143694      12.64650378       0.06910334       0.02128968      -0.02694425      -0.84839471      -1.50870362      -2.68324852
I        9.89959758      20.20622021      25.87586770      -0.02546652      -0.22964650       0.00225310       1.11270092      -0.63012037      -0.93896204
I       13.38626753      23.34659336      26.58612118      -0.17507752      -0.08340957       0.05665191      -1.06804774      -1.57113754       1.16436207
I       12.83860395      16.39344993      13.15359588       0.00901859       0.08659690      -0.02458512       1.78700291      -2.68696734       2.54201247
I       18.98788499      20.05282376      23.45679044       0.05070214       0.02578388      -0.22304568       5.27064624      -2.03861134      -0.22451127
I        5.79414517      20.05889207      16.11661675       0.05695448      -0.06984517      -0.06458954       3.76800661      -1.36379098       0.07877353
I       12.88262967      18.72265357      16.32367820       0.05774297       0.17591268       0.04381063       0.25921804       0.19196726       2.16857577