800
Lattice="26.60090233037032 -0.10885371601800067 -0.012576984335369887 -0.16326821126149613 26.70796757724442 -0.11619453362706225 -0.03468897457082644 -0.09720257182728802 26.58786177588616" Properties=species:S:1:pos:R:3:forces:R:3:momenta:R:3 energy=-3426.06982421875 stress="0.0021532755345106125 4.533211540547199e-05 -7.368187652900815e-05 4.533211540547199e-05 -0.00013605396088678387 8.84132896317169e-05 -7.368187652900815e-05 8.84132896317169e-05 0.001418944797478616" pbc="T T T"
N       10.16121902      10.58350140       3.70976928       0.19692027       0.13975041      -0.71138898      -0.53787417       0.44287980       0.41509005
C       10.52710918       9.40892675       4.49311172       0.62185137      -0.53919284       2.26786456       0.46782293      -0.31252759       0.27052472
H       11.35054418       8.79340369       4.09882845      -0.29195124       0.20564331      -0.78529024       0.02121862       0.08838513       0.34266774
H        9.64447876       8.79921821       4.69256192      -0.15396630      -0.12285588      -0.25160122       0.32043836      -0.11530488       0.00584044
H       10.92796412       9.67631681       5.50477852      -0.40041648       0.32086313      -0.59762642       0.09524217      -0.13316413      -0.00044529
C        9.37952378      10.15873239       2.48202333      -1.04635688      -0.16928996       0.67363855      -1.32023402       0.07487971       0.83497303
H        8.71146034       9.30721731       2.79397836       0.38716601       0.80456738      -0.17196395       0.10501286      -0.13220224      -0.04195132
H       10.08064670       9.75247678       1.78008231       0.55280481      -0.14027616      -0.62856715       0.00226086       0.09790258       0.24533936
H        8.76308019      10.97236288       2.03395341       0.51997279      -0.29031583       0.40378946       0.16457944       0.03803708       0.05344695
H       11.06631481      11.06341574       3.47450052      -0.73547935       0.14976638      -0.11634961       0.18132717      -0.08641380       0.14407363
H        9.58759571      11.23962467       4.29713769       0.21430647      -0.02573705      -0.00394624       0.18955403       0.00561617       0.07115179
Cs       2.87542737      15.99826269      10.15962861       0.05347710       0.03249535       0.01696348       1.43145802       0.77264023      -1.01063382
N        2.33258050       9.08805096      10.70362018      -0.20453204      -0.62448511       0.28583777       0.94949255       0.12776370       0.67345482
C        2.44806088      10.48557594      11.19655203       0.67883444      -0.37373852      -0.35780404       0.07042762      -0.07303850       1.22605260
H        2.09393312      11.15269309      10.42272073      -0.13391167       0.20304334      -0.55799734      -0.10714640      -0.01847846      -0.13518106
H        3.49738034      10.70554528      11.40191452       0.23601783      -0.06591571      -0.03580644       0.21716977       0.03255650       0.09939300
H        1.86195834      10.69174966      12.06877086      -0.38274648      -0.24587399       0.81081125      -0.01994957       0.03052474       0.03613958
C        2.98423831       8.98120326       9.37881689       1.25930173      -1.01798127       1.62582863       1.14598972       0.87889258      -0.04411010
H        2.82297003       9.81269206       8.77018769      -0.24346797       1.72324907      -0.75232959      -0.22957533      -0.03109445       0.08317669
H        2.65012492       8.13481273       8.85339501      -0.66546474      -1.40173046      -0.66025430      -0.14808956       0.21360394       0.01592651
H        4.04036112       8.79058392       9.62840214       0.08927022       0.38279426      -0.55200590       0.11260910      -0.32495541       0.02451024
H        1.36657237       8.71659324      10.71930505      -0.34200098       0.54238197      -0.34997571       0.25404200       0.19333348      -0.24647757
H        2.76256469       8.32118502      11.30618712       0.05924195       0.80068532       0.25264957      -0.20294983      -0.17719732      -0.12821206
N        9.53216581      16.58272357       2.55281882       0.53154310       0.21497354      -0.45685135      -0.58829534       0.26745027      -0.11296315
C        9.25474604      18.01662389       2.95172561      -0.35138999      -0.11356008       0.05547187       0.35058627       0.40951012       0.30335634
H        9.81622575      18.22936651       3.86271957      -0.10590943      -0.03641595       0.27278809       0.14471795       0.05591542      -0.08444260
H        8.14321649      18.11838002       3.10769840       0.94911153       0.11007925      -0.11961967       0.12038120       0.21839010       0.09363535
H        9.65538055      18.68350776       2.17253793      -0.35694752      -0.08709689      -0.03715853      -0.10729447      -0.13376421      -0.23507054
C        9.17675291      15.64255114       3.69256585      -0.14550674       0.51516822       0.10808635       1.60507983       0.47847867       0.54167163
H        9.24285791      14.57354979       3.48507757       0.44353237      -0.04993574      -0.46426979       0.42731147      -0.41380046       0.02613676
H        8.17124519      15.79060868       4.10468296      -0.32982999       0.43013519      -0.59084828      -0.04159000      -0.04514117       0.06124487
H        9.80484941      15.94598441       4.52601968       0.57128184      -0.19092782       0.15628049      -0.11940576       0.05647818      -0.00835312
H       10.58202315      16.50967687       2.28071639      -1.50296414      -0.08378508       0.33230452      -0.23960050       0.20546225       0.03299537
H        8.96980213      16.47013658       1.65879849       0.31060312      -0.56157778       0.65622585       0.02762933       0.18213955       0.21790415
Pb      -0.46720291      13.16323517       6.44065275       0.07164798      -0.17884730       0.23337890       1.93059199       3.44481286       2.93955379
Pb       6.22565366      13.35978122       6.55200007       0.13851135      -0.00027874      -0.05041867       1.74562280      -0.15505994      -3.13972651
Pb       0.17061073      12.87551509       0.30020741       0.05989918       0.10181642      -0.09895152      -0.88163750       0.55789258      -2.87595806
Pb       6.48390629      13.67321491      -0.21797098       0.02543561      -0.03176129       0.15166833      -0.80975279      -4.48702642      -3.87367546
I        2.45851064      12.70986073       6.97022475       0.31569307       0.06226887      -0.05473957      -1.38119145      -2.45601903       0.60228166
I        9.34040589      12.87654564       6.38938411      -0.09669240      -0.03188747       0.03140292       2.39815725       0.39778673       1.82402995
I        6.17763075      10.33498496       6.29591544      -0.12863903      -0.26107638      -0.08553420      -2.48313684       0.80326664      -2.50850182
I        6.70244543      16.55789453       7.18443675      -0.11059486       0.04227832      -0.03033320      -0.09860519      -0.07155757       0.40834199
I       10.02489140      13.29723875      -0.13140671      -0.23098583       0.07853630       0.17529565      -2.43184300       0.63331669      -1.83813429
I        2.90664184      13.62951245      13.44122239       0.28531946       0.20173913      -0.18531841      -1.28232728       2.54759674      -3.88994093
I        7.01427057      16.71993167      13.44145962       0.01428315       0.10147580      -0.09712304       2.26454891       1.26424966       2.50793702
I        5.62933644       9.73930822       0.06986921       0.16441637      -0.00235428      -0.13580531       1.75776503      -1.23022633       0.68474030
I       14.15853071      13.20010055       9.97720290      -0.09851393       0.02005359      -0.20468167       3.00075787      -0.28630226      -0.32500018
I        0.63440275      13.54671118       3.35523224      -0.03870915      -0.31903781      -0.13744670       2.87116324       1.80334551      -0.27565118
I        6.04033050      13.25556440       2.99052946       0.09186225      -0.19413125       0.14844483      -3.03405965      -0.30317671      -1.50988639
I        5.72385639      13.28487025      10.34514761       0.09582829       0.06242482      -0.27592523      -2.02373159       0.46501397       1.73812371
N        9.65758941      10.85765493      16.10647678      -0.83385780       1.14893648      -0.64587325      -0.68996599      -0.37785463       0.81939958
C        8.59423486       9.84393761      16.47784975       0.42339479       0.28563886      -0.51434015       0.32842822      -0.05513595      -0.12685221
H        8.65643642       9.07016454      15.68197594      -0.05564800       0.01166599       0.62734901       0.39253707       0.16825834       0.01823356
H        7.53966741      10.22446172      16.49658990       0.92638441       0.13152980       0.13768537       0.15363169       0.01088953       0.06909027
H        8.98046852       9.53264019      17.45007458      -0.60272145      -0.74952972       0.16985017      -0.13043994      -0.33008599      -0.14390163
C       10.95312227      10.19792980      15.73784155      -0.61904977       0.65002469      -0.52527499       0.55692193      -0.66233228      -0.53746235
H       10.72933927       9.62511169      14.82347746       0.24741075      -0.06564583       0.13216103      -0.02682456       0.06363104       0.19299501
H       11.14668057       9.53339641      16.56045471       0.61489761      -0.43740406       0.39163856      -0.02479107      -0.12099016      -0.33654213
H       11.76648413      10.92780452      15.52380935      -0.53401468      -0.29048258       0.34141717       0.11442120      -0.05562928      -0.10027626
H        9.75690859      11.57395768      16.87954241       0.11856781      -0.45784015      -0.17839062       0.03520802       0.14004769       0.13392221
H        9.30181673      11.42557912      15.29067954       0.33614376      -0.20117781       0.23678727      -0.33039472       0.11911047      -0.06049959
N        4.08267598      17.55135878      23.32832497       0.41858467      -1.35437764      -1.53768276       0.18426138      -0.26300914      -0.25211230
C        3.91844831      16.19655874      23.94811383      -0.26031698       1.35539551       0.49046322       0.28325871      -0.27541078       0.26696560
H        3.36136637      15.60545457      23.24360965      -0.47647129      -0.46544674      -0.21573186       0.21430349       0.13824601      -0.14668025
H        3.40427862      16.33667707      24.92661960       0.18151796      -0.27821056      -0.51231112       0.30569080       0.10433170      -0.22908592
H        4.90661311      15.82852670      24.05017297       1.02441507      -0.78136954       0.36762002       0.12497626       0.08510250       0.02885372
C        2.76703467      18.18006710      23.18817762      -0.44998107      -0.71029756      -1.58473491       0.16977842      -0.26591315       0.46213496
H        2.38441072      18.41366590      24.15523182      -0.43218299       0.34356904       0.83697404      -0.01110018      -0.00274050       0.01385026
H        2.09611748      17.44149988      22.65014979       0.52945622       0.73511031       0.52566832      -0.21751424      -0.18157135       0.25452816
H        2.91225136      19.03702325      22.53932551      -0.26823892       0.46668529      -0.03700387       0.16129186       0.16329367      -0.06915245
H        4.51331113      17.42740067      22.35198437      -0.51143386       0.24237810       1.19104192      -0.11184320       0.27491882      -0.11852617
H        4.76397566      18.12965956      23.83927229       0.19089958       0.40575704       0.27545446      -0.06880587       0.36775618       0.00683860
N        2.41075986      10.31083249      22.86702211      -1.54057899      -1.01043276       0.80227979       0.58784207      -0.28988158       0.44054800
C        3.64526932      11.17849586      22.99179323      -1.23670535       0.09458917       0.06617273      -0.30092770      -0.60934429       1.20169614
H        4.01795333      11.13334834      24.00564954      -0.27056395       0.00879955       0.74428283       0.08480875      -0.12472744      -0.23606060
H        3.30091612      12.20598137      22.74102928       0.56762152      -0.42442688      -0.04598422      -0.08610405      -0.09725948       0.02183749
H        4.47050898      10.78031925      22.41899205      -0.02798241      -0.09572000      -0.91160079       0.32024136      -0.03673952       0.26713271
C        2.54689244       8.81490926      23.08078122       0.74168194       1.08374425      -1.69794640      -0.12163790      -0.41958115      -0.94245450
H        3.17138711       8.44750501      22.26720900       0.00436872      -0.17094435      -0.18944997       0.10824321      -0.07448418       0.08076986
H        1.58795928       8.34918030      23.07736095      -0.86819550      -0.31026680      -0.11279139       0.29073689       0.25348146       0.10966758
H        3.03772450       8.65347227      23.97749066       1.02666324      -0.31625496       2.04772713       0.17918450       0.06194234       0.07465123
H        1.85376398      10.33424107      21.97143613       0.68721389       0.63961190      -0.21740683      -0.13702395       0.03549769      -0.04477559
H        1.63386003      10.57874735      23.55212874       1.00023284       0.32421291      -0.44004748       0.10453741      -0.21089166      -0.00828694
Cs       9.23363590      16.46020298      16.76246651       0.11017837       0.05970479      -0.21962081      -1.96866777      -1.31508416      -0.45076748
Pb      -0.44197662      13.37560846      20.15012327       0.05298400       0.02769586       0.03796063      -0.82054390       0.58770145       4.28426281
Pb       6.28922412      12.96111210      19.89160205       0.10057941       0.10882488      -0.03518516       0.18164927       3.05402241      -1.62790896
Pb      -0.03032861      13.04459155      12.93512434      -0.36772732       0.18546800       0.07099538       2.42469606       1.20583579      -4.45558437
Pb       6.70618683      13.79654854      13.27937447       0.08049115      -0.22268164       0.08947652      -0.55271542       0.56547972      -3.24207183
I        3.25453281      13.57835252      20.09233464      -0.09705079       0.02911453      -0.14691184      -1.45065791       1.30239859       2.13122998
I        9.63856881      12.95327574      19.13764747       0.13679892       0.04598311       0.16021319       2.30594016      -2.19571862       2.29149847
I        5.83528641       9.57757852      19.79228615      -0.10839060       0.50175691      -0.10740375      -0.02797057       1.38419721       1.75051465
I        6.57616297      16.51284126      19.36521092      -0.08343913      -0.01326598       0.17066235       0.62397522      -2.10430372       1.28628114
I        9.95694315      13.17347712      13.40464952      -0.14419369       0.11291564      -0.12647733      -0.12932253       0.98130999      -0.36726494
I        3.21709174      13.29951023      26.49428701      -0.01841325      -0.15317116       0.02639317      -0.90731417       0.73400026      -3.17250380
I        6.65261129      16.69184010      26.68033976      -0.01942890       0.14309096      -0.00557939       0.73012459       0.66360144      -1.93037555
I        5.73971384       9.45224759      13.50610465       0.08294365       0.27432046      -0.14172105       0.36203504      -0.67855365      -0.76740657
I       12.64846137      14.08237923      22.63281082       0.17952751      -0.02971951      -0.05257973      -0.24146034       0.00868117      -1.04576723
I       -0.68651631      13.20038088      15.96831335      -0.13712274       0.01274516       0.28803430       1.52960775       0.16052137       0.51565952
I        7.07092960      13.47218068      16.42021620      -0.33458162      -0.12319997       0.09877017      -0.63018369       0.26959394      -0.95616656
I        6.96179703      13.47217773      23.11732528      -0.04955841       0.01723082      -0.19466889       0.61504505      -0.22690026       2.19802581
N       17.41441500      17.33736849       3.59262100      -0.26678963       0.05315995      -1.03794338       0.15805942      -0.02784934      -0.83985322
C       16.38115610      17.20323146       2.47432857       0.34789166       0.08547351       1.10399553      -0.85919404      -0.93489985      -0.26943861
H       15.96426133      18.18414733       2.33443228      -0.63170489       0.51737583      -0.02682864       0.33319548      -0.11157829      -0.06142838
H       15.61335823      16.46353746       2.79476108       0.50506691       0.30849428      -0.34441500      -0.08108818      -0.14617965       0.19729903
H       16.92826519      16.97076193       1.54586811      -0.19222864      -0.37987983       0.24017722      -0.05653931       0.15563881      -0.14053394
C       18.14167895      16.07260203       3.73994707      -1.40344954      -1.65211440       0.23287945       0.42198693       0.28915971      -0.13590788
H       18.31032753      15.60892692       2.71662211       0.10694654       0.66083780       0.98267752       0.02321904       0.03128746       0.18733471
H       17.36866694      15.40420871       4.26740700       1.34934071       0.44185271      -0.38734489       0.02324957      -0.03660608      -0.13725883
H       19.06111569      16.24413975       4.31317815      -0.11431364      -0.27529137      -0.05613890       0.33823003       0.08704013      -0.22756751
H       17.09621544      17.75919049       4.49589373      -0.57408478      -0.42101645      -0.14782187      -0.16488865      -0.14006610       0.20083547
H       18.11756978      18.02431323       3.29233611       0.51345403       0.65513897      -0.50329698       0.12073509      -0.28100084       0.16982764
Cs       9.92023429      24.26295107       9.82115144      -0.01989699      -0.10830596      -0.19071077      -1.46742518      -0.90006440       0.20891944
N        9.09427220      16.15606900      10.02508349      -0.30586344      -0.40302752       1.59834866       0.53022352      -0.15333246       0.90940049
C       10.02551655      17.27375939      10.26527311       1.05516701      -0.66672690      -0.81214663       0.16911152       0.18944857       0.77239180
H       10.82787484      16.94725727      10.94317034      -0.14345295      -0.19140163       0.01438301       0.05661645      -0.18238731      -0.21480086
H        9.54719147      18.07498153      10.73330444      -0.96076818       1.58989426       0.50814757       0.38249790      -0.04785497       0.18125504
H       10.51925157      17.50574149       9.30793535      -0.23636241       0.32107579       0.15922998       0.07822192      -0.17482660      -0.03456520
C        9.94636898      15.07007111       9.51219531      -0.85727062      -1.87183307      -0.62153141      -0.22295691       0.12276735       0.57698733
H       10.82176795      14.93267495      10.17860325      -0.43159288      -0.08950406      -0.22180364       0.02469799      -0.06746559      -0.19743243
H       10.27275808      15.31253572       8.48905854       0.12151368       0.19061333       0.13165915       0.08491790       0.14116025       0.13181003
H        9.31611353      14.12941913       9.40728898       0.78767452       0.81883933       0.34285890      -0.05145003       0.27749867      -0.18211952
H        8.24192798      16.34450246       9.45047155       0.35449821       0.35468584      -0.62329680      -0.14974686       0.12449806       0.20102530
H        8.63397699      15.89970731      10.94306312       0.54253680       0.00406969      -0.40997304       0.11895861       0.10088445      -0.26188551
N       16.49735314      22.49345739       4.38771186      -1.41095015      -1.17158735      -0.40443254      -0.00574651      -0.83231942      -0.11481229
C       15.91006046      23.86873926       4.20053150      -0.06174707       0.17236077       0.95047344      -0.62698613      -0.54916351       0.81622259
H       16.77923040      24.50246845       3.87831655      -0.78549790      -0.21012592       0.15751993       0.30571916       0.19602685       0.36801311
H       15.46963501      24.26570109       5.18328139       0.56757555      -0.51430308      -1.26475301      -0.03780463      -0.33454224      -0.13214716
H       15.13979611      23.82521734       3.39234532       0.42374224       0.00598124       0.53844666      -0.12460396      -0.01911933      -0.18435452
C       16.74886760      21.88136219       3.04167083       1.37230824       0.77038365      -1.13197518       0.79202586       0.04527031       0.70050643
H       17.38964827      20.98080551       3.15080857      -0.36924631       0.33190171      -0.03021111      -0.23288828       0.09555336      -0.05240166
H       17.34222668      22.65425494       2.41704820      -0.55229952      -0.98816616       1.01021189       0.06010428      -0.07737435       0.19631939
H       15.86359153      21.66998285       2.41303883      -0.16637619       0.00070067       0.73701156      -0.13436063       0.20370383      -0.00367110
H       15.97547281      21.77819339       5.05140301       0.37668273       1.18395556      -1.09614407       0.05742171      -0.17198460       0.31846433
H       17.43003265      22.56232918       4.83408496       0.49702715       0.29274900       0.36437482       0.20516550       0.07659296      -0.07420910
Pb       6.72952734      20.34072350       6.87136194      -0.17410850      -0.07026195       0.12069310       4.69302250      -1.90146994      -0.96975880
Pb      13.17857533      20.44691896       6.58698736      -0.31714384      -0.24362491       0.08324383      -0.11310630       0.70684404      -1.05486743
Pb       5.74470232      20.25231085       0.31260083       0.16909971       0.10554152      -0.15580412       1.36593172       1.50600353      -1.67219602
Pb      13.24448998      20.21358970       0.00810097      -0.02915207       0.24588733       0.02639326       2.51803345      -3.97008469       2.69319536
I        9.78842339      20.45243140       6.90310275      -0.18717519      -0.04671722      -0.04776358      -0.49384361       1.41985463      -2.33497719
I       16.01746547      19.47379139       6.43522035       0.50194421      -0.01490712      -0.05177599      -2.11160254       3.82426146       1.79787980
I       13.10460743      17.24541215       7.05777375      -0.03044356      -0.00935394      -0.02584502       1.06006222       1.17916360       0.71941963
I       12.44329324      23.78479175       6.90459291       0.08735324       0.04806444       0.02047906       1.75906172      -0.01868432       0.30639033
I       16.53415489      19.82823658      -0.47141624       0.07034574       0.04227515      -0.00260238       1.87679266      -0.78758857      -2.69599333
I        9.81229427      20.46082368      13.24790506      -0.25485172      -0.17498167      -0.14138535      -1.43268432       0.80911059      -0.54670884
I       12.36736552      23.50893340      12.80702292       0.03182144       0.30144329       0.08325765       0.18574375      -0.41838963      -1.61612984
I       12.52830999      17.24612648       0.13308388      -0.05810638      -0.37335671       0.17635840       2.25169866       0.78161603      -0.40373689
I       20.22242476      19.56279382       9.90174432      -0.04557310      -0.01290740       0.11241037      -0.64189148      -0.16155525       1.86261910
I        5.66364953      20.77295863       3.42472883      -0.05470860      -0.08548002      -0.00608270      -1.40581425      -0.80465657       1.43281398
I       13.28435255      20.30267734       3.23075947      -0.02090833      -0.14175852       0.00926391       1.35145550      -2.66076471       1.62075203
I       12.72871957      20.34831400       9.95705870       0.07788862       0.12131555      -0.18120750       0.17836220      -1.40302363       0.07516826
N       16.79850258      16.32317455      15.32040575      -0.54222594       1.87710371       0.59932711      -0.26168929       0.81401701      -0.72286059
C       18.16868721      15.99391357      15.71385168       2.18337475       0.47600847       1.01546261      -0.13276841       0.08791200       0.57959701
H       18.25767754      15.17785517      16.49362026      -0.69940864       0.46557361      -0.73599006      -0.23598462      -0.33164925      -0.20397202
H       18.60915885      16.91459616      16.23650911      -0.40959571      -0.91923128      -0.82288943      -0.15421357       0.16733469      -0.06103888
H       18.82067265      15.68579734      14.84315805      -0.77325861       0.44089777       0.63987329       0.00806879       0.03043856      -0.08913838
C       15.90014888      16.81993984      16.53359764       0.91089402      -3.00609800      -1.22584301      -0.46011101       0.31136852       0.39164618
H       15.94201012      15.98850440      17.29855918      -0.56789086       0.49729692      -0.95288185       0.01067535       0.30614179      -0.28290882
H       14.96314744      17.02758371      16.04762736      -0.69334388       0.24709767       0.35671805      -0.20832870      -0.15598190       0.00113694
H       16.38672317      17.60403920      17.00902482       0.86584302       2.01574526       0.44509054       0.09584936       0.10469476      -0.03319648
H       16.37053706      15.50591279      14.94263821      -0.77711351      -1.40925779      -0.49776595      -0.09486502       0.27688072      -0.19510532
H       16.73565747      17.02544292      14.50519013       0.26931957      -0.43842739       1.02804958      -0.02500274      -0.13986999       0.15183541
N        8.57492024      23.01369199      22.70562527       0.77029189       0.22931886       1.00948347      -1.25688554      -0.08909762      -0.16779889
C        8.82804627      23.62298719      24.06916289       3.48097319      -0.18315405      -0.73056976      -0.02182561      -0.47169016       0.78695636
H        8.95772527      22.78929490      24.76593680      -0.61883766       0.10373098       0.19259718       0.04684248       0.25183358      -0.17017220
H        8.07479822      24.35671827      24.28183930      -0.55583360       0.32135691       0.14952015      -0.14932634      -0.21492046      -0.23688066
H        9.88885707      24.10854687      24.09338793      -1.75007677      -0.54235936      -0.45611801      -0.00420964      -0.04482890      -0.13353493
C        8.67739933      23.96602592      21.59897087       0.63898013       0.00046617      -1.53488863       0.35939276       0.06283090      -0.34019418
H        9.62788228      24.50808297      21.74695136      -0.39177143       0.18939232       0.01335430      -0.00438673       0.10805715       0.00648821
H        7.79445706      24.62534965      21.58507543       0.30108078       0.02752542       0.18963204       0.05106883      -0.09948786       0.01380878
H        8.78952183      23.46501187      20.57882983      -0.37178101       0.24078098       1.26177413      -0.01001278      -0.04159464      -0.33564502
H        7.64673094      22.64804863      22.79812512      -1.41342255      -0.70447910      -0.26335870       0.09050538       0.11496384      -0.04413563
H        9.14804441      22.15547604      22.53094024       0.17564391       0.35959982       0.01759897      -0.00222210      -0.00789883       0.16119847
N        9.45426369      16.29124397      22.46744400      -0.12984699       0.09656653      -1.40974752       0.74033368       1.31873596      -0.68444030
C        9.02982877      17.62542517      22.06965854      -0.80640925       1.12534618       1.62556025       0.55841889      -0.36061019      -0.26458102
H        8.54704102      18.12399334      22.95748297      -0.16871734      -0.69515036      -0.74145758       0.22535048       0.25377943       0.19048260
H        8.37685600      17.53575035      21.22009356      -0.34349445       0.15224680      -0.43120717      -0.06293748      -0.07603651      -0.00095293
H        9.86118193      18.27271654      21.89877944       1.07836863       0.26872285      -0.51544958      -0.14519609       0.06562649      -0.15730051
C        9.98708307      16.22265009      23.79256448       1.36172654       3.23944057       1.11583847       0.29239929       0.32083002       0.55378231
H       10.93072809      16.86926574      23.90217293      -0.91920542      -0.95874403      -0.41655732       0.05709685       0.10210000      -0.08953495
H       10.15137198      15.23027212      23.98050006       0.75660985      -2.56556319       0.98778255       0.08437830      -0.37951610      -0.05222005
H        9.30504083      16.66844091      24.51728327      -0.45069886      -0.15129857      -0.04142233      -0.00174466       0.02571101      -0.17203449
H       10.11335182      15.88368657      21.77926270       0.31164634       0.16453769      -0.01933598       0.18021423       0.15752648       0.06516922
H        8.65003278      15.67878003      22.38410415      -0.83158616      -0.67739260       0.18713840      -0.17414545       0.07631140       0.07490657
N       16.23980746      23.27726687      16.34428951       0.16116021       0.18778061       1.82617271       0.23990695       0.02165482       0.51871169
C       15.11702471      22.55557652      15.76936648       0.30049216      -0.71760043      -1.55167953       0.21744077      -1.11674336      -0.09204180
H       14.51283284      22.26642059      16.59626767      -0.73671105      -0.80098201       0.63906887      -0.20715426      -0.24334043       0.44607469
H       15.51836268      21.75819897      15.13495094      -0.10558068      -0.44684812       0.48762892      -0.00051152      -0.06411019      -0.09728034
H       14.48184818      23.10961206      15.06776049       0.34195666       0.71300150       0.19107195       0.22227559       0.19347400      -0.08769472
C       15.80488555      24.64711804      16.61173460       1.28418632       2.31339734       0.33418616      -1.07809226       0.64848940      -0.72116457