560
Lattice="26.157507724231735 0.03412126587575072 0.024733302258855613 0.12711351494517506 26.08949757504914 -0.19329087698783864 0.0907097200958035 -0.20324591545652962 25.803031332327926" Properties=species:S:1:pos:R:3:forces:R:3:momenta:R:3 energy=-2163.72509765625 stress="0.0012988727539777756 -3.961868424084969e-05 -0.00022745877504348755 -3.961868424084969e-05 0.001937298336997628 6.857809785287826e-05 -0.00022745877504348755 6.857809785287826e-05 0.0009183645015582442" pbc="T T T"
Cs       9.65818670       9.68719315       3.28402800       0.09703885       0.00998587       0.07008019       1.42418771      -0.27249227      -2.40906832
Cs       3.52480050      16.17028834       9.83035357       0.01730937       0.10578311      -0.02793050       3.71589833       0.08597022       3.82671349
Cs       3.22040121       9.67825304       8.75771503       0.00789792       0.03496975       0.06191654      -0.25495652      -4.39351936       0.94558927
Cs      10.30248447      16.44513599       3.44738264      -0.22978505      -0.09472045      -0.17013218      -3.50957682       0.12010955      -0.63123475
Pb      -0.23456557      12.79573937       6.52444684       0.16950075       0.17100157      -0.20675787       0.71461061       0.84636746       0.59828127
Pb       6.69257618      13.24902676       6.30329493      -0.09710218      -0.13958347      -0.11810768       1.50348572      -0.39245493       1.22156599
Pb      -0.79935670      12.51595636       0.13980188       0.28356616       0.05670094      -0.02215357      -4.25907899      -1.08122631       0.27721819
Pb       6.82386885      13.01215763       0.01915092      -0.45633461       0.17465634       0.08554091      -7.04486920       2.69876741       1.20091728
I        3.48508568      13.32853652       7.14578978      -0.03327076      -0.03288046      -0.07034969       1.58712311       0.31751697       3.58448148
I        9.99047974      13.07794362       5.85359740       0.08846004      -0.03708617       0.12676932      -1.93667294       2.61947373       1.14409192
I        6.38002892       9.87602974       5.60544247       0.10567090      -0.10863573       0.26951168      -0.51413896       0.41864175       0.74541317
I        6.77356090      16.35181545       7.02642004       0.06843713       0.01790706       0.06883043      -0.50580414      -0.98935473       3.64273597
I        9.78928564      12.31132337       0.30951977       0.12137427       0.01834215       0.07339612      -0.39568756      -1.62254618      -0.19434739
I        3.04914213      13.11790795      12.87541889       0.24425218      -0.04545241      -0.12328148      -2.14754693       0.65073204      -4.34987828
I        6.31387674      16.20379737      12.60220205      -0.08458403      -0.07789193      -0.10652526      -1.34852348       1.31202280      -0.72674560
I        6.96704171       9.44833443       0.87970404      -0.39790029       0.12855065      -0.17279179      -0.71466906       1.15767115       3.34208537
I       12.77572792      12.81825171       9.62420873      -0.15862669      -0.10954859      -0.10120006       2.50189108      -0.33979525      -1.69507099
I       -0.53852216      13.06136618       3.19172349       0.10367215      -0.12132537      -0.05377037      -0.84992347      -0.93317935       1.19843884
I        7.08300394      13.95067670       3.22780660       0.04195233      -0.09271720      -0.36321666      -0.61464416       2.61632326      -2.39120771
I        7.07829034      12.94853117       9.34897360       0.05819211      -0.11878266       0.35071332       1.93508668       2.18919202       0.72424701
N       10.13924253       9.54775130      16.47536234       0.73536188       0.99923921       0.16288100       0.41722159      -0.36093105      -0.44115818
C       11.41231437      10.33529942      16.68009866      -0.50153633       0.80832899       0.32417374      -0.05527068      -0.66424301      -0.01102148
H       11.55478764      10.87988621      15.72017415       0.26865238      -0.11932635       0.57929239      -0.22896449       0.06369637      -0.19614416
H       12.27650740       9.69412275      16.91673092      -0.28906500      -0.17886767      -0.19815888      -0.08570479       0.01512620      -0.05003275
H       11.22393297      11.03173256      17.54428759       0.19637826      -0.36597960      -0.69030479      -0.09257194      -0.13255343      -0.12484753
C        8.95880289      10.41126357      16.18445569       0.35497070       0.27051307       0.08459551       0.09343223       0.78588808      -0.69551735
H        8.25623891       9.88103954      15.56189390      -0.59234285      -0.61694517       0.04570675       0.04706837       0.09276833       0.12603627
H        9.35719826      11.17226494      15.52838956      -0.07323336       0.73309220      -0.07411286       0.09537115      -0.30488892      -0.05880351
H        8.51745238      10.81537384      17.12213165       0.27008215      -0.18309236      -0.49195224      -0.01219992       0.03317662       0.11102169
H        9.95067310       8.99644574      17.30244693      -0.00194211      -0.84540085       0.61248053       0.11738041       0.10368760       0.14100321
H       10.37313445       8.97373957      15.67682206      -0.40440294      -0.91692363      -0.48312654       0.13547148      -0.19317531       0.01342517
Cs       3.57408401      16.58506084      21.39865267      -0.18081273      -0.03303904       0.28161347      -0.04925408      -1.45212929       3.01867395
N        3.99300220       9.09477295      22.57837886       2.32955694       0.79941594       0.94515778      -0.84560786      -1.35421645       0.40158084
C        2.63585050       8.87507468      22.10814122      -0.54873134      -0.92726645      -1.24001995      -0.84693397       0.11004479      -0.99077876
H        2.28205130       7.81406391      22.20356198       0.57431719       0.55484304       0.14971627      -0.38710611      -0.09037686      -0.02795021
H        2.65561923       9.11767091      21.00060689      -0.52893958       0.00096609       1.15571069       0.31831433       0.07423055       0.05955055
H        1.98964420       9.47621714      22.73167985      -0.43796620       0.47019068      -0.16793215      -0.22258752      -0.06517113      -0.04140362
C        4.20911243       9.98062790      23.88279936      -3.40188409       0.62402627      -2.46241006       0.15825531       0.07278584      -0.06292674
H        4.13275468       9.39585304      24.76278536       0.15635740      -0.93477099       0.80801042      -0.01533871       0.12167728       0.07727750
H        3.28482156      10.70041809      23.86580120       1.87289222      -0.84977920       0.00938986      -0.05927640       0.13038608       0.39023839
H        5.15191743      10.42283943      23.68444654       0.90059172       0.83738589       0.34561454       0.00365309       0.15480427      -0.22151871
H        4.50178790       9.61684504      21.76765248      -0.31247382      -0.84084656       1.00671310      -0.07732797      -0.28372601      -0.00702235
H        4.54520445       8.21898503      22.78443870      -0.49231812       0.28306601      -0.59925053      -0.04883327      -0.22867265       0.20675818
N       10.82764237      15.35185194      16.20806677      -1.67995201      -0.55937276       0.03517884       0.13491090       0.34363036      -0.46050304
C        9.36674060      15.81869287      15.97603562       0.62970876       0.57162009      -0.65307599       0.07600744      -0.31872572      -0.35561909
H        8.74076051      15.41214057      16.80117742       0.28282479       0.44443669      -0.46635983      -0.18224760      -0.13002635      -0.00391775
H        8.97020756      15.50840477      14.95905743       0.60403513      -0.21917773       1.03276727       0.28889400       0.03832814       0.07902973
H        9.41330396      16.92757789      15.90523687      -0.18751905      -0.48479394       0.50650660      -0.05253236      -0.07044011      -0.05515417
C       10.82417998      13.81315013      16.17929563      -0.82705667       2.04318059      -0.94578582       0.13983501      -0.04981854       0.91728417
H        9.81559131      13.51436133      16.49426224       0.19720868      -0.24927618      -0.58594338      -0.25154543       0.26368371       0.23131567
H       11.49144193      13.56548983      16.92060741       1.70380417      -1.00734258       1.68350913       0.14479854      -0.02590008      -0.11829932
H       11.22215475      13.56827547      15.17508592      -0.67145221      -0.46619513       0.35242754      -0.23837833       0.09598401      -0.03943857
H       11.22086364      15.77574006      17.12820726      -0.24891308      -0.54459480      -1.18790998      -0.33358522      -0.00298700       0.07149521
H       11.39686376      15.60806122      15.38680896       0.17483703       0.72358818       0.23178606      -0.13064911       0.02342617      -0.09447479
Pb      -0.10971862      12.75895175      19.29969229       0.06339570      -0.09872334       0.05832599       3.90640748       0.22088251      -1.30136483
Pb       6.54818945      12.71023358      19.34589811      -0.19653127       0.03573142      -0.13873700       0.84144921      -2.86910116      -2.85686636
Pb      -0.00622971      12.83192744      12.72485530      -0.03580141      -0.09917985       0.25168785      -1.83726661       0.30777519       1.96074911
Pb       6.31591765      12.78939639      12.57793193       0.10818820       0.20129167       0.14233198       0.48222831      -4.93707848       2.45738592
I        3.07323172      13.29209718      19.64572987       0.14619653       0.05014516      -0.06482789      -0.18428155      -0.57838460       0.13466556
I        9.84517924      12.34703816      19.63895609      -0.20978860       0.10588481       0.00043015      -0.63630716       0.91411428       1.64195874
I        5.30645746       9.73058027      19.29295062       0.17086982      -0.05812888      -0.14496881       0.98777492      -4.06925057       2.49964148
I        6.65040253      16.20783870      19.58618975       0.19258326      -0.18143255      -0.08074530      -0.26750644       0.79567444       0.08792684
I        9.55276207      13.02012242      12.69136885       0.04302075      -0.07035005      -0.09549515       0.69929603      -1.87214647       2.86037359
I        3.65098793      13.36696982      26.11754272       0.11874650      -0.06395199       0.06041277       0.84785994      -2.31577317       0.02069778
I        7.57005136      15.85867180      25.05952048      -0.07164509       0.07537076       0.09732281      -0.44135862       0.04777371       3.60852526
I        6.10778271       9.64612994      12.06104906      -0.04607464       0.12633804       0.14328141       1.07220072      -1.46746963       1.42264003
I       12.44979263      13.87705280      22.73230549       0.12111516      -0.12909089      -0.13339224       0.90320540      -1.88296356       0.16643073
I        0.63071886      12.79557001      16.25755852      -0.00615657      -0.12666190      -0.30267510      -0.89360113       0.29080197      -0.86025963
I        5.76364685      13.29821684      15.95954602       0.04161240      -0.19159614      -0.01060977       0.13403470      -0.98481939       2.82451170
I        6.64183634      13.00529851      22.38430246      -0.04007241       0.03411785       0.14255370       1.77346057      -1.10066567       5.50385517
Cs      16.00951040      15.71851806       2.54353566       0.05772612       0.11927891       0.06354350      -4.05336268       0.53477170       0.75501619
N       10.13723629      23.28184905       9.62956616      -0.27667622       0.67067245       1.29101081       0.73323095      -0.95601463       0.13242349
C        9.19553158      22.14027792       9.94821359      -0.70295417       1.50334305      -1.83214638      -0.57032293      -0.09169772      -1.25242766
H        9.65705067      21.43770676      10.55747549       1.18950885      -1.15031965       1.51785464      -0.06787591      -0.08305202       0.06030025
H        8.83940741      21.56103763       9.06110793       0.32647801       0.86036492       0.09397365      -0.26035593      -0.23173276      -0.14331843
H        8.38654969      22.64201005      10.43318883      -0.93823971      -0.07150569       0.53547692       0.00502941      -0.16547933       0.12236372
C       11.22553455      22.85519852       8.77777204       1.29624295      -0.98098191       0.76691493       0.19935616      -0.31004494       1.89660053
H       11.69202698      23.73338691       8.35996735       0.79976894       0.30899589       0.24941775       0.13040792       0.15894984       0.21916614
H       10.82137337      22.35851884       7.92452973      -0.57899236      -0.72920991      -0.68870156      -0.00147963       0.10760364       0.15879052
H       11.86736768      22.10828707       9.36248497      -0.43812563       1.15161547      -0.81494420       0.01066398       0.00974805       0.05045236
H       10.45209629      23.80241826      10.52049809       0.05338594      -1.14127734      -0.32547866      -0.08765731       0.02726659       0.00244005
H        9.71500175      24.13150594       9.21590643      -0.85076957      -0.33576138      -0.74080124      -0.32927083       0.06849926       0.11864055
Cs       9.92659920      15.72209781       9.55657705      -0.00724811       0.10980376       0.04449085       0.68521494      -2.91546369      -1.85315774
Cs      15.81847077      22.25202158       2.77443526       0.12793911       0.07715102       0.10181750      -2.18242733       1.41960932       2.60402791
Pb       7.10754232      19.43148410       6.03698461      -0.31217819       0.03633710       0.34447137      -0.91472433      -0.29601584       0.90959979
Pb      13.60010556      19.17546633       6.27415260       0.05549532       0.13954308       0.07080544       2.98695422       0.30084222       1.24861223
Pb       6.62511465      19.13482781       0.06608792       0.09980181       0.00027648      -0.65413475       1.57991277      -0.97877413      -2.30395498
Pb      13.44224347      19.60187119       0.17989127      -0.36479127      -0.18065442      -0.26147898      -0.19375742      -3.29824720       2.82692986
I       10.08256483      19.07061207       6.50293287       0.11758147       0.01153743       0.09678257      -0.30992750       1.99677546      -2.62885602
I       16.62224032      18.88589287       5.27092331      -0.17130499       0.05597460       0.08848589      -1.93591204       1.03854684      -2.99512094
I       13.15691660      16.17992290       5.55218508       0.18216303       0.11293494       0.15716618      -0.33017764      -1.36126213      -2.50025489
I       14.11995076      22.89317210       6.47717923       0.15896856      -0.11920705      -0.00274474       0.61047012       1.05109048      -3.57289873
I       16.49902640      19.25012821       0.32776032       0.09740789      -0.11361054       0.13290637       0.01000059      -1.16016935       0.25943720
I        9.68093844      18.71152901      12.41400397       0.22624536       0.05961861      -0.06408111       0.80323921      -4.04986170      -0.07828169
I       13.42412001      22.44435618      12.37812982       0.01870326       0.24164945      -0.06293559       1.14854960       0.15645127      -1.72569492
I       12.85695881      16.49803112       0.58172005       0.06883264       0.02174089      -0.02652216       0.12730141       2.72804807       1.71614583
I       19.12636120      20.09060984       9.38385064      -0.00878503      -0.01855896       0.25057004       1.67849321       0.47670091      -0.40677047
I        7.40817062      18.89531226       2.91599417       0.05515931      -0.03812535       0.34395362       1.28575776      -2.68230247       0.31782656
I       12.61214895      19.94157253       3.25321566       0.30471258      -0.28366963       0.04841787      -0.66142646       0.57645111      -0.34899947
I       13.34699908      19.18404748       9.63949286       0.01723006       0.01899215      -0.11205217       1.47115252      -0.75016198      -0.40739893
Cs      16.60402957      16.30968563      16.50337070      -0.04135793      -0.02575835       0.04201796      -0.04234165       0.20252821      -1.37650455
Cs       9.36222000      22.30175293      22.58500361      -0.03359449       0.16400575       0.13541550      -3.33939304      -0.45323760       4.46391655
Cs      10.15809026      16.64262706      22.24936796      -0.09134541       0.07427600      -0.01424496       0.76429348       1.10246997      -1.28521482
N       16.93628783      21.44791055      16.23740984       0.25965135       1.24916560      -0.10397529       0.60652558      -0.42599090      -1.21699675
C       15.58526246      21.12108681      15.69363397      -0.62241849       0.08721369       0.42343028      -0.74437730      -0.94687345      -0.06474495
H       14.83923407      21.65908452      16.35087941       0.55425623      -0.73252245      -0.38750972      -0.14145845      -0.16548912      -0.24986839
H       15.45116242      20.00412242      15.69731464      -0.07312676       0.82582771      -0.00948290       0.16195792       0.22021225      -0.01888208
H       15.43963306      21.55437555      14.67995970       0.40315209      -0.26035350       0.29233563      -0.09922162      -0.06923774      -0.01940228
C       17.12025952      23.00967458      16.37171613       1.68344419      -2.21136504      -0.94117712      -0.68444822      -0.63263066       0.22623848
H       18.05640897      23.13896165      16.93804889      -0.25291275       0.23894124      -0.16759428       0.11589608      -0.23994223      -0.07717786
H       16.28629566      23.38329219      16.87801588      -1.42680996       0.58055843       0.95941824      -0.07117197      -0.19867322      -0.02605634
H       17.17505283      23.40949632      15.35215399       0.08160254      -0.02087674       0.08939221       0.20035699      -0.29052879      -0.10336410
H       17.71306543      21.04862414      15.64306521      -0.39910203       0.13427011       0.20504918      -0.07142882       0.36226897      -0.01120170
H       17.09487686      20.97882439      17.16366377      -0.27136634       0.31477737      -0.28209132       0.31899468       0.09510762      -0.23056427
Pb       6.56294809      19.29365600      19.24168306      -0.01667381       0.20150720      -0.02603280       2.62948796       3.22054925      -1.01806526
Pb      13.24388587      19.47474021      19.30219692      -0.28800396      -0.02902509      -0.04877362      -0.68868705      -2.75371697      -1.84210067
Pb       6.71159742      19.48763445      12.90037209      -0.13074804      -0.03151794      -0.17808325      -1.80559924       0.09795216      -0.92654463
Pb      13.04297629      19.18649126      12.83713199      -0.17922628       0.20681086      -0.01043728       0.34847134      -1.76167442      -0.53563214
I       10.16030538      19.84460036      19.97462228      -0.35132209       0.01662113      -0.07023934      -0.43783156      -3.91445665       3.10267394
I       16.21861331      19.19830656      19.39341723       0.62513335      -0.06194774      -0.17078909       0.58380299      -0.07242976       2.72514852
I       13.02734750      16.11568198      19.00955641      -0.08253240       0.04339693       0.03732046      -1.77462980       1.32770276      -1.94832234
I       13.77307072      22.83887321      19.35338472      -0.04370396      -0.26921378       0.06682511       5.17544863       1.26724504       1.37166920
I       16.58165531      18.80416496      12.99818029      -0.76781475      -0.26363896      -0.05191953       1.87600328       1.73262614       0.19104819
I       10.14005883      19.15588840      25.23511239      -0.10876525       0.19841113      -0.05219927       2.13338031      -1.32646855       1.00897810
I       13.15214576      22.89483975      25.55320564       0.02528623      -0.37635030      -0.03814813      -0.15071073      -1.70514230       0.34085407
I       12.96870540      16.19416266      13.00348980       0.01341292      -0.49166111       0.10195560      -1.39937919       0.59705809      -0.25063956
I       19.46386945      18.72368862      22.60827374       0.05872669       0.18749694       0.06790444      -0.56499061       1.37152732       0.19843509
I        7.07226092      19.42090730      15.97700227       0.00911922       0.07279535       0.15012853      -4.10004776       0.22696974       2.46969846
I       12.25942542      19.21591321      16.20372561      -0.01780588       0.09396326      -0.16671349      -1.79027091       2.94453476      -0.84075413
I       13.60301851      19.01720318      22.47188372      -0.12250894      -0.06582852       0.22749694      -0.22479061       0.20224682       0.02056116
N       10.76185272      22.67908641       2.72604755      -1.95578766       1.99383802      -0.05556264       0.07198306       0.09696771      -0.09131889
C       11.27614689      23.76301156       3.70039674      -0.56917638      -1.25979749      -0.80919715      -0.36868938       0.18447538       1.09958743
H       12.31774921      23.97241008       3.37687549      -0.29728179       0.03810258       0.36585739       0.14457397      -0.13535452      -0.04774819
H       11.18994927      23.30655514       4.69992630       0.15329324       0.28859531      -0.13625494      -0.20541802      -0.31625454       0.10539975
H       10.61282768      24.62494279       3.60273544       0.06481851       0.05162006      -0.00609148       0.03727877      -0.11952867       0.03502636
C        9.24496131      22.46433246       2.71625722       0.39476852       0.47403131      -0.74372759       0.00518863      -0.38204604       0.75562608
H        8.99092412      21.62754582       2.06719407       0.23116499       0.06141315      -0.66654108      -0.31732605       0.10383599       0.11791724
H        8.65730643      23.37023889       2.44164898       0.66860622      -0.35063361       0.17332796       0.15901919       0.11648520       0.13444082
H        8.96906440      22.08147880       3.65341748      -0.41880223      -0.07999697       1.80402372       0.15015633      -0.00377847       0.05658148
H       11.17192575      21.77731321       3.03242848       0.55403555      -0.36739415      -0.58161590      -0.04063313       0.01432800      -0.00500847
H       10.92915090      22.99232042       1.73941377       0.80397344      -0.66335713       0.50817779       0.16709218      -0.00791654      -0.05021500
Cs       3.97318375       3.43108833       9.52175429       0.04738763       0.01435978      -0.03562473       0.51093525       0.18006778      -1.77092090
N        3.07697877      22.13625202       9.09764655       0.16818295      -0.77746828      -0.80614010       1.36701330       1.21413370      -0.02369314
C        3.16888586      22.57887131      10.53032463      -0.57195030      -0.69817642      -0.66501103      -0.34342842      -0.19415974       0.35733850
H        2.34921851      23.28363997      10.73154982      -0.11740334      -0.48227064       0.18353968      -0.06688178       0.06438145       0.07610612
H        4.03335951      23.16204511      10.43865780       1.62092253       1.05576823       0.76230772      -0.06204163      -0.15689290       0.18035671
H        3.32260031      21.74405160      11.24340925      -0.39369692       0.32366717      -0.39000664      -0.24701611       0.18386487      -0.00359659
C        3.11668071      23.30987289       8.18172183       0.45856574      -0.40764163      -1.31456395      -0.13178611      -0.52263527       0.03332978
H        4.10971940      23.79856810       8.29007051      -0.29433892      -0.38476215      -0.42905943       0.42757249       0.17750642      -0.02550888
H        2.38862004      24.06417099       8.42588219      -0.70816087       0.25378395       0.54763700      -0.04804833      -0.30532712      -0.15181158
H        2.85239699      22.93732626       7.14670708       0.61154173       0.43697008       0.87297631      -0.01296386       0.26006216       0.05502416
H        2.19672835      21.62317584       8.86220469       0.42880474      -0.22737711       0.55339420       0.07577983      -0.09634204      -0.10852118
H        3.93534243      21.49127727       8.83326451      -1.30029851       0.58124518       0.67361360       0.15896857      -0.22169330      -0.16351818
N        9.71549388       2.95451071       4.07902990       0.10121080      -0.12572249       0.30523988       0.74863841      -0.11402651       0.10022252
C        9.66857201       1.75228555       3.13656341       2.44205198       1.63360088      -0.10929138      -0.18751100      -0.24009428      -0.41175586
H       10.13147011       0.91906952       3.63858682       0.20553573      -0.49207091       0.27007705       0.04020772       0.14139594       0.09501121
H       10.34363053       2.10521800       2.29025616      -0.89319569      -0.79661056       0.58779153      -0.10804543       0.11709634       0.19926209
H        8.68141067       1.51046869       2.83943634      -1.17301229      -0.00601526      -0.43188018      -0.12830619       0.07839398       0.15592856
C        9.55725203       4.19551703       3.30457042       0.20913738       1.06013173      -1.28062719      -0.95954008       0.23056468      -0.56475649
H        8.74668467       4.07996131       2.57103968      -0.15833985      -0.03915843       0.27043060       0.03388431      -0.09046646      -0.25530202
H       10.46832064       4.34789028       2.69425697      -0.12792718      -0.18492153       0.23139003      -0.06883339       0.10873090       0.08758928
H        9.41360862       5.13491259       3.87162566      -0.03728743      -0.62935557       0.27624248       0.19475073       0.38257874       0.13384991
H       10.66597708       3.03979055       4.52350625      -0.68079076      -0.47367807       0.04306403       0.15082978       0.05382377      -0.07854800
H        8.98073328       2.87817018       4.82618254       0.31648426      -0.01740202      -0.11313688       0.27240248      -0.13153846       0.16508660
Pb      -0.03084452       0.22696033       6.35518434      -0.07079894       0.02211943       0.13054838      -0.03925492      -0.62143639      -1.59198647
Pb       6.43777719      -0.16938948       6.46441480      -0.06369579      -0.02738438       0.14915646       0.05992619      -2.00120469       0.85736511
Pb      -0.27413470      -0.29704850       0.22469770      -0.13105930      -0.26533692      -0.55040128       4.20947483      -0.40091280       1.65647113
Pb       5.72804507      -0.28561624       0.03095012       0.49596206      -0.20409796      -0.14442715      -2.07062854      -0.26733228       1.78613367
I        2.89199424       1.24969116       6.64232594       0.11399567       0.01290218      -0.07330761      -1.33295867       2.20947650       2.22612938
I        9.54791100      25.88038858       6.86121481       0.21646423       0.03408333       0.05773261      -1.12057172      -1.07496131       0.87825657
I        6.69671337      22.65929824       5.91404746       0.04595473      -0.07240931       0.00743340      -1.82019376      -2.08363378      -1.76093389
I        6.99735266       2.94089914       6.79196771      -0.02757499       0.34265088       0.04772814       1.46047568       1.27357905       1.27461883
I        9.48926951      25.81164069      -0.83242283       0.03483132      -0.24698838       0.16515185       1.81307073      -2.38800498      -0.12755581
I        3.25577595      -0.85904839      13.74242673       0.01390497       0.19123492      -0.13508652      -1.14604600       2.28642884       1.38096350
I        7.03230835       3.21987943      12.72209035      -0.06277909      -0.06025558      -0.15147076       0.68815533       2.08401501      -2.51925407
I        5.68006969      22.56067118      -0.67698386       0.03609026      -0.02631761       0.18427165       2.94733925       2.63102277      -0.07806454
I       13.07971596       0.57743752       9.48598387      -0.05178529      -0.04037929       0.35594927      -2.03693698      -0.27062105       0.06142640
I        0.21811501      26.83798493       2.68568040       0.14439938       0.09012842       0.98015723      -1.98748982      -0.15578750      -0.72228991
I        6.06016503      -0.05383462       3.24945076       0.10713828       0.01202929       0.04758550      -1.88771697      -1.15881177       1.73971940
I        5.71707356      25.41613637       9.76305663       0.16662065       0.28001481      -0.38032524      -1.29011864       5.72473252      -0.75115014
Cs       9.91792043      22.42571275      16.62602271      -0.06567175      -0.01090222      -0.07393913      -0.67964335       1.67639186       1.23900746
Cs       3.09290925       2.64534355      22.23087489       0.07216324       0.12386686      -0.00137851       1.09627147      -0.10740321      -1.05750719
Cs       3.39022476      22.77408743      21.95854682       0.00549386      -0.00993106       0.00281321      -2.56330550       3.73994936       2.56508261
N       10.34879718       3.49727211      15.84026485       0.69617483      -0.24518648       2.14830202      -0.62591996       0.24426434       0.18502234
C        9.75913802       2.19149951      16.41488888       0.81546209      -0.80224119      -0.15110555      -0.45114920      -0.50259914       0.60286932
H        9.66431252       2.08592792      17.55073083       0.02526866       0.94530576      -1.32536336      -0.05628759       0.16630288       0.04446075
H       10.43048943       1.31387454      16.12292684      -0.79331756       1.06606077      -0.01304211       0.14938298       0.40806960       0.11735562
H        8.80753848       2.17082296      15.88226482      -0.35152339      -0.59202112       0.33242685      -0.22382200      -0.17167151      -0.05138491
C        9.54720313       4.70004988      16.20896554      -1.34436843      -1.25109147       1.94600401      -0.19247469       0.51871604       0.72553804