720
Lattice="26.38206276254377 0.35755190364016115 -0.02384501292103681 0.3590357160067252 26.71071837412981 -0.07883327762752684 -0.018334422375429597 -0.027205167462624535 26.083608896494137" Properties=species:S:1:pos:R:3:forces:R:3:momenta:R:3 energy=-3004.443603515625 stress="0.001556373666971922 0.0005565753672271966 0.0001590446918271482 0.0005565753672271966 0.0002353598101763055 -0.0006642592488788068 0.0001590446918271482 -0.0006642592488788068 0.00018122103938367218" pbc="T T T"
Cs      10.50519625      10.15579445       2.87295822      -0.12525126       0.04286219       0.15494368       3.83413651      -2.12046223      -0.76466374
N        3.35536509      16.19446039       9.22009651       1.04065810       0.16116259      -1.53176416      -0.28176000       0.57624127       0.65191486
C        2.28691284      16.46861871      10.23168208       0.73149620      -0.68850306      -1.33903486       1.45233582      -0.31057372       0.26160324
H        1.36497732      16.75330014       9.76227533      -0.64865766       0.00199370      -0.50540943       0.34433791       0.37513051      -0.18210290
H        2.65217728      17.29270667      10.77492750       0.36367535       1.12873549       1.24059100       0.10030249      -0.12771872       0.00866175
H        2.18612856      15.57524599      10.82429734      -0.19149773      -0.32816347       0.51889583       0.26463256       0.17596390      -0.23703932
C        4.65735087      15.71699507       9.89682698       0.56399027       1.04017469      -1.87613038       0.20462313       0.24820111      -0.51905213
H        5.15612279      16.56499234      10.42350469      -0.73936696      -0.42596795       0.14721903      -0.09602201       0.09652064      -0.02355813
H        5.47875497      15.36187553       9.16344422      -1.54607605       0.17381399       0.72487050       0.02455914      -0.08260134      -0.03872026
H        4.23022182      14.95009315      10.50159811       0.60384347      -0.83443641       1.06193969       0.15812301      -0.14303639       0.12111318
H        3.55969696      17.04865290       8.61604983      -0.23181482      -0.52178521       0.66054509       0.04497677      -0.19802836      -0.01868743
H        3.07521243      15.44241263       8.45744086       0.11612620       0.64162354       1.05110523       0.11034860       0.18315839      -0.15394199
N        4.07381333      11.01723674       9.74954073       1.06813031      -0.55223118       0.84414631       0.49338435       0.68438837      -0.83999906
C        2.95172855      11.97447881      10.05344311       0.42453430       0.05874330       0.94052973       0.69143337      -0.29908083      -0.05702401
H        3.23621705      12.94674719       9.70601137       0.26528821       0.73414349      -0.40893688       0.44245428      -0.11854375       0.12988730
H        2.65046788      12.12560744      11.14344154       0.60841774      -0.86234519      -0.97386738      -0.24775250      -0.03893818      -0.11147897
H        2.13891424      11.62748537       9.45990691      -1.02128562      -0.22691413      -0.43048139      -0.10415095      -0.08209029      -0.03635110
C        3.62107343       9.56705997       9.60836496      -1.52449198       0.84918449       0.83807734       0.31056382      -0.60075924      -0.18496739
H        4.42607251       8.90958186       9.93731684       0.06870940      -0.12060442      -0.14759439       0.04032319       0.09486180      -0.11786221
H        3.29343776       9.40071073       8.54483124       0.24997452       0.00533634       0.89697771      -0.11150839      -0.02829061      -0.00196011
H        2.73464220       9.51504477      10.32064121       0.96662835      -0.36866753      -0.86378421       0.13034525      -0.12013003       0.10912017
H        4.87476521      11.12650160      10.45583301      -0.97305909      -0.28932404      -0.60121931      -0.22269128       0.15590245       0.05112317
H        4.54180123      11.19786245       8.84786107      -0.11599336       0.73612338       0.03166175      -0.26781573       0.15177977      -0.23401533
Cs      10.51820616      16.75958162       3.69339007      -0.12481882       0.01466138      -0.00754552       5.28217220       4.62597439       0.23537401
Pb      -0.09097661      13.20933657       6.24776304       0.03914709       0.89619316       0.10418171      -2.10993673       1.25757339      -2.19581443
Pb       6.82238460      13.36337700       5.99242958       0.04767246      -0.06439508       0.16726614       2.69406211      -2.59935470      -1.78314049
Pb      -0.03661129      13.59609444      -0.08991900       0.12350904       0.00422695      -0.06152886       1.12840440       2.66177961       4.50119148
Pb       6.81114030      13.46963553       0.26505413       0.05926327       0.13630616      -0.13357025       2.24728987       0.07953001       2.41644820
I        3.53305554      13.89125366       6.83583931       0.00753025      -0.14427674      -0.41755809      -0.35402777       1.02112426       0.35823384
I        9.91869101      12.99179170       5.66857421       0.09289361       0.06820647      -0.16767132      -0.95542138      -0.19737362       3.19204952
I        6.32850581      10.04246338       5.34071931       0.09196249      -0.07409366       0.17572544       1.52694494       3.24067114       4.92754582
I        7.61766520      16.47486620       6.55083551      -0.05090894       0.09915440      -0.04653350      -1.20919281      -3.49376850      -0.40356474
I        9.97331920      13.94812085       1.19832906       0.08427921      -0.20407069      -0.18041742      -1.34544372       1.72109445       0.27648271
I        3.25196557      14.02723004      13.66602638      -0.26685838      -0.18426286      -0.03579230       0.26586210      -1.08289387       2.10068435
I        5.95101911      17.21773511      13.84437398       0.27786977      -0.07116741      -0.30357793       1.63160265      -0.23091719       0.80633671
I        7.31643261      10.41289540       0.90982036      -0.04706146      -0.12644789      -0.12537856      -2.76538492      -1.75592230       1.14896559
I       12.00185446      13.24114907       9.27825404       0.20541844      -0.00756859       0.31141536      -1.98443242      -1.96480502      -1.67025237
I        0.25081962      13.59757045       3.06948474      -0.04648985       0.05918858       0.13618461       1.14537572       0.32364526       3.40022795
I        6.10074243      14.66862803       2.98447922       0.00352185       0.00094606       0.30754270      -3.45742473      -2.22074999       0.65354501
I        7.47589813      12.60378841       9.07825919      -0.08928254      -0.07070230      -0.11252230      -1.46621380      -1.15152589      -1.35977818
N        9.74457417      10.83243730      16.05352170       0.45481083      -1.42163625       1.13911949      -0.54851383      -0.19462814      -0.31136259
C        9.07058419      10.85193982      17.38668496       1.29076935      -0.79921480       1.26875513       0.49641857       0.08219920       0.26674491
H        9.81186040      11.37040333      18.08062393      -0.94213876      -0.56657602      -0.50031105       0.06873861      -0.00472397       0.16888724
H        8.97713411       9.77530926      17.71262375      -0.22287102       1.06574862      -0.27526431      -0.15912761       0.00859579      -0.10471715
H        8.14841774      11.43393456      17.37929238      -0.18406857      -0.20186394      -0.13805842      -0.15658301       0.06133463      -0.04294769
C       10.05388615       9.48312609      15.45836962      -0.89532213       0.09943520      -0.69009293       0.46084176       0.62642681      -0.26603408
H        9.16550089       9.09340234      14.85945184       0.89379030       0.51352505       0.83699884      -0.01888467      -0.20513738      -0.12106595
H       10.32277141       8.83552926      16.28204590      -0.12034931      -0.37207966       0.35109257       0.09382375       0.09311501       0.19965377
H       10.94334187       9.57576801      14.83063807      -0.06056708       0.09298381      -0.23104241      -0.06977185      -0.09003272      -0.13899878
H       10.60587303      11.34080881      16.23217575       1.14558242       0.35841716      -0.13819256       0.04986481       0.09730676      -0.05059594
H        9.27562373      11.42325920      15.42796887      -1.35493950       1.11528122      -1.58111305      -0.13369779      -0.15082716      -0.06022690
N        3.08802243      16.71150026      23.18696618       1.63556573      -0.71253462      -0.12047797       0.68171010      -0.56289289       0.18946095
C        4.00205840      16.03702333      22.21394203       2.04143546       1.51179917      -1.20851440      -0.21502137      -0.32827826       0.38915154
H        4.89768120      15.49083386      22.63776485      -0.94101946       0.70752091       0.17877975      -0.08553207      -0.35395342      -0.13209485
H        4.38758838      16.83708050      21.42579455      -0.58424308      -1.26961400       1.65532747       0.00630206      -0.10326646      -0.09811333
H        3.44057770      15.35509372      21.64785405      -1.06774374      -1.20263181      -0.77526455       0.20061554      -0.11946287      -0.01669591
C        2.17095528      17.61447364      22.48830422      -2.04076365      -0.87961978       1.55123156      -0.48593204      -0.28124362       0.17336096
H        2.77292859      18.10104550      21.80767368       0.91628573       1.39403340      -1.88314252       0.12903232      -0.08384778      -0.22947274
H        1.79074490      18.35690703      23.24768204      -0.21667894      -0.74539365      -0.81606063      -0.06090045      -0.33753570       0.02162316
H        1.40692857      16.94290716      21.98269210       0.54689043       1.12737367       0.55852591      -0.18710175      -0.00087811       0.14679408
H        3.76149582      17.24383240      23.76616576      -0.70393602      -0.03302169       0.59228869      -0.15826186       0.16705550      -0.09044140
H        2.53363979      16.01771794      23.70924459       0.31617666       0.10585994       0.49674766       0.06248709       0.09182832       0.33017515
N        2.20768250       9.39185944      23.21738592       0.01337349       1.90274890      -0.28127572       0.69683574      -0.98218028      -0.54639453
C        2.79552422      10.32440841      22.14582818      -0.66176467      -1.45394943       0.41774500       0.62279978       0.39812147      -0.55028038
H        3.46283114       9.62519778      21.59543214      -0.17721637       0.78370162      -0.20238650       0.03684853       0.26546783      -0.03209877
H        3.34092714      11.10941460      22.64327554       0.40574723       0.34435064       0.29324072       0.15901114       0.01105228      -0.21011221
H        1.97780719      10.76045645      21.55641739       0.17729673      -0.22860029      -0.12885878       0.15962247      -0.08649986       0.10080841
C        3.27035975       8.97600237      24.14979367      -0.59548418       1.31402422       1.12782020      -1.14247081      -0.24392485       0.11706847
H        4.10331838       8.64870760      23.57932492       0.90732034      -0.65528255      -0.56437799       0.26942853      -0.11908560      -0.18313410
H        2.88173990       8.22064556      24.84806542       0.13212338      -0.01416749      -0.11536773       0.25295013      -0.14035010      -0.09181169
H        3.58627935       9.90555793      24.71251718      -0.26841573      -0.82935379      -0.36165255      -0.35917756      -0.25454609      -0.12585128
H        1.69997056       8.64135245      22.73810257      -0.11074877      -0.99587988      -0.15429701      -0.22306427       0.08796513       0.20673695
H        1.45082744       9.86564427      23.77497944       0.25315314       0.04816349      -0.04241045       0.03830999       0.03838812       0.34791922
N        9.37332636      17.71060178      15.83515328       1.95538538      -1.40352961       0.68557388      -0.70320212       0.55139575       0.16074740
C       10.41840869      17.98139570      16.93007392      -0.57572053       0.97534577      -1.34851786       0.64803087      -0.33698637       0.20189698
H       11.44905678      17.65423597      16.55674143      -1.29075077       0.42869436       0.45586739      -0.04111194      -0.01956192       0.12253690
H       10.04939364      17.41442258      17.76085296       0.14817350      -0.29217695       0.91708397       0.08228775      -0.16688877       0.21627523
H       10.29577016      19.09071258      17.04628654       0.68344194      -0.77845037       0.39454664      -0.02682116      -0.28832622      -0.05295516
C        9.26687826      16.24637808      15.57738007      -0.05439388      -0.16733998       0.53782609       1.08593292      -0.01316680       0.18710520
H        8.68739190      16.06103771      14.68045521      -0.23927118      -0.00919339      -0.21363296       0.16374875       0.13336179      -0.05266324
H        8.78394260      15.82254665      16.45598876      -0.44309671      -0.08886092       0.08615870      -0.14682200       0.25916101      -0.14090328
H       10.22711261      15.71242925      15.53917732       0.24017212       0.61744649      -0.25723588       0.21157389      -0.35089957       0.00821027
H        9.83464764      18.19708268      15.06577174      -0.58530036       0.44099830      -1.18589915      -0.18096046       0.10270895       0.06394346
H        8.44035343      18.11205133      16.03396127       0.07716334       0.36206321      -0.02742773       0.11567129      -0.12918398      -0.06621884
Pb      -0.11415404      13.67050578      19.49632010       0.08256419      -0.27079270      -0.16741935       1.10119271       0.67625171       1.83385401
Pb       6.23932835      13.91899202      19.91262165       0.24030770      -0.09571788      -0.00236408      -2.42204843       2.41251034      -0.91982688
Pb      -0.13951816      13.64588908      13.06678320      -0.02576603       0.19663572       0.06530207       0.98362938       0.69961728       1.72050245
Pb       6.48199427      13.45919962      13.26705043      -0.07482773       0.31632881      -0.68410393       0.88251796      -1.03474289      -0.21053895
I        3.21339484      13.87239298      18.81003366      -0.03471663      -0.12855681      -0.02800540       0.37536796      -3.04823480       1.13595262
I        9.42466012      14.04607557      20.19298910      -0.10327804      -0.01306507       0.02341643      -0.54261334       0.16529394       0.52419887
I        5.69505625       9.90653638      19.45570882       0.04246843       0.08361892      -0.02508874      -1.17135015      -0.63117844       0.63489227
I        6.21749480      16.94493836      18.96266506       0.19372855      -0.03374176       0.14355108      -0.26119636      -1.57746950      -0.01123446
I        9.66521532      13.46233353      12.90199951       0.21646736      -0.26511705       0.03719740      -3.34575018      -0.89024491       0.18029946
I        3.29204057      13.55687266      26.42867349      -0.01833493      -0.12877243      -0.14408422      -0.70282532       0.71564866      -4.78225568
I        7.54135537      16.59291795      25.49113168      -0.10661388       0.16330391      -0.01949312       1.15895237      -0.32367474      -1.76437209
I        6.58006827      10.52271652      13.02847165      -0.05935514      -0.38946873      -0.11204513       1.44186236       1.76847993      -0.75704699
I       12.83087718      13.56844153      23.00824620      -0.13311197       0.05212248       0.15440929       1.03375680      -4.38369584      -2.12647309
I       -0.58362186      13.29456562      16.06000635      -0.03344768      -0.01567844      -0.09382221       1.87075045      -0.14976434       2.08757488
I        6.65491120      13.29802186      16.07546392      -0.11129627       0.00636490       0.79036262       1.78004731      -0.65314607       0.41775077
I        6.44258397      12.98749573      23.06870518      -0.04914732       0.09057026      -0.11074143      -0.89457453       1.60022561      -1.47855002
N       17.18582292      17.71400185       1.90858251      -0.70514707      -1.24467510       1.77917467      -0.28246903      -1.25672045       0.02477864
C       17.96049397      17.97356935       3.17509493      -0.80870014      -1.82321442      -0.10275226      -0.07260081       0.13860438      -0.07176875
H       18.96951567      18.22720563       2.95585102       1.16429277      -0.05663816      -0.49994296       0.09900873      -0.03581652       0.09728246
H       17.90631065      17.00995685       3.75764041       0.11767739       0.95295713      -0.31469893       0.13901775      -0.10440023      -0.17367929
H       17.58199237      18.80356611       3.71610876      -0.96954517       0.74668114       0.57323975      -0.11554825       0.14247674      -0.32279739
C       15.71535587      17.34825703       2.10400550       0.84159892      -1.08764522      -0.55991503      -0.93923736       1.15919365      -0.60637068
H       15.34319098      16.81407101       1.20309520       0.23519493       0.49757363       0.11163934      -0.01681188       0.15302411       0.00631024
H       15.09771560      18.20998872       2.32366387       0.05970074       0.40224499       0.17361444       0.13358683      -0.06393860       0.06824785
H       15.68893469      16.58495343       2.88608351      -0.01469181       0.18890834       0.35364525       0.23730647       0.10684651       0.05316131
H       17.67800036      16.93036969       1.46327247       0.02353737      -0.38869988      -0.41272967       0.08839737      -0.02635946      -0.25258353
H       17.26389615      18.45777234       1.25151782       0.05554911       1.66169193      -1.08500521       0.02323638       0.13341659      -0.06085019
N       10.20603449      23.51461382      10.45597237      -0.16275189      -1.64943808       2.88471562       1.12857037      -0.58340880      -0.68861830
C        9.75658896      22.00443114      10.35975196      -0.89278987       2.22121056      -1.37031820       0.46110566       0.42039387      -0.62969516
H       10.48226279      21.53949271       9.72464342       0.47586562      -0.38433923      -0.56400191       0.23921359       0.18039755       0.07992305
H        8.71528999      21.97125157       9.88201481       1.28370617       0.07510373       0.67542679      -0.15537318       0.32649328      -0.15575904
H        9.80932124      21.57960368      11.33747656      -0.25633932      -0.20974138       0.77631177       0.02088019      -0.08971553       0.09450480
C       10.64472211      24.11404529       9.22044983      -1.87547294      -0.47462099      -1.64698283       0.01528275       0.11109778       0.09428544
H       11.10416168      25.05463605       9.37516062       0.42988089       1.20145265       0.23501525      -0.06653612      -0.12571991       0.00691722
H        9.72578584      24.17211523       8.58347060       0.61826527       0.37073942       0.11819247      -0.10003384       0.02973402       0.01622753
H       11.31393134      23.45287939       8.70846841       0.74310314      -0.57476018      -0.25214803       0.00226411      -0.06506484      -0.05128383
H       10.96022765      23.61713377      11.20387794      -0.36828101      -0.34056633      -0.78642027       0.06018335       0.09216974       0.22440653
H        9.41792854      24.01556944      10.90959718      -0.02812472       0.12534434      -0.40209672      -0.27841326       0.10873034      -0.14675280
N        8.75743747      17.41511449       9.78619214       1.68412308      -0.43090393      -0.68769596       0.45480629      -0.54666967      -0.11823688
C        9.95687562      18.20521260       9.38093164      -1.26655695       1.80668127      -1.85558899      -0.17384403       0.04937519      -0.15467572
H        9.67999708      19.05597549       8.63226529       0.24963134      -1.22693540       1.42559689      -0.14808616      -0.12257281       0.19201590
H       10.62170168      17.58896936       8.83954585       0.54960362      -1.29755716      -0.93752154      -0.06341541      -0.38823210      -0.19096281
H       10.57856185      18.54250925      10.17419680      -0.04854950       0.64664626       1.37101568       0.12244306      -0.20502940       0.17142217
C        9.04467614      16.45360552      10.81618239      -1.09873236      -0.73285706       1.02406164       0.14080299      -0.07875453      -0.03751305
H        9.54008204      15.58465079      10.39276563       0.15665997      -0.22358694       0.14684320      -0.16992799       0.10109857      -0.09743251
H        8.06926331      16.25866737      11.26093483      -0.24256131      -1.01834322      -0.11498408      -0.01700557       0.26283834      -0.03186717
H        9.50800798      16.87326167      11.67965592       1.27279460       0.72478506       0.34449838      -0.10369948       0.09451490       0.22627328
H        8.49276524      16.83446087       8.96486924      -0.50188622       0.43571314      -0.52097840      -0.21327158      -0.32001689       0.04860861
H        7.94721411      17.93722439      10.12535278      -0.59679308       1.21084935      -0.27489663       0.01067153      -0.03574143      -0.10493342
Cs      17.12960231      24.06168830       3.22394842      -0.08503646      -0.09567279       0.04398512       2.68439970       0.04308648      -2.49467979
Pb       6.93131927      19.97076226       6.33892927       0.13136494       0.00761109       0.04131175       2.34566649      -1.26485449      -3.42000345
Pb      13.70050090      20.07885125       6.24480748      -0.11301249       0.20517351      -0.08529150      -3.14119685       1.19539070      -1.59860824
Pb       6.49315371      20.12520150      -0.12386595       0.11179085      -0.09818625      -0.08285098      -1.47705302       2.83974039      -1.09122411
Pb      13.24375417      20.51635636      -0.44058344       0.27769026      -0.05767559       0.13447787       0.55576872      -2.13589228      -0.54872390
I       10.21144091      20.37804371       5.98867004      -0.06278120      -0.11023426       0.00367316      -1.10085249       0.71917791       1.09762801
I       16.82707407      20.38379751       6.01421605      -0.04901213       0.05124852       0.14288483      -0.63127393       0.75103404      -0.74385453
I       13.59085243      16.98227881       5.89022190      -0.20621700       0.05379585      -0.14659376       1.41701834       0.47811388      -0.08894441
I       14.04835492      23.73147459       6.29017025      -0.09961894       0.06040426       0.03853013      -1.99998839      -0.94613334       0.05187398
I       16.74112543      20.13435007      -0.64899010       0.08481526       0.11315018       0.01539690       1.25594731      -1.03422613      -2.67235994
I        9.81981098      20.17694082      13.46015069       0.23750007      -0.11271370       0.16772392      -1.21606553       0.51050083       3.30965486
I       13.65251887      23.78265709      12.64460542      -0.06229487      -0.21448960       0.03731486       4.93112211      -1.32562764      -1.05371394
I       12.35038629      17.11053498       0.10426435       0.09931197       0.07530756      -0.08834825      -2.16474909      -2.21560732       3.04573955
I       20.68626278      20.73275690       9.81656431      -0.27646941      -0.23424308      -0.31685149      -0.51815371       4.07627672       1.68481888
I        6.43895471      19.58245626       3.37847802       0.03614645      -0.04139853      -0.25369243       0.21358230      -2.86169696       0.95340301
I       13.20182598      20.60481134       3.13611911       0.10805375      -0.04645001      -0.08222721      -0.78226932      -0.13716721       0.28365028
I       13.30726345      20.24618391       9.83637028       0.11476221       0.01458456      -0.08728640       1.50695262      -0.77501848       1.16300157
N       16.82703911      15.39074113      15.98880122       0.41205862      -0.00516236      -1.06492078      -0.17755206       0.00643717       0.01522791
C       17.17992935      16.65642378      16.62703275       2.97908161       0.73712727      -1.21750230      -0.71867151       0.01410623       0.52997953
H       16.48799806      16.92954524      17.33865082      -2.15850251       0.71434617       1.38207015      -0.06875340       0.13404497       0.19918151
H       17.31701974      17.43180628      15.81658680      -0.25861239      -0.50124664       0.86667881      -0.00032510      -0.22358732      -0.16280011
H       18.11432989      16.57197813      17.21957270      -0.03090012      -0.12526358      -0.56940908       0.25103528       0.01593308       0.15507084
C       15.44563805      15.51545968      15.46945542      -0.65467807      -0.69659962       1.80820897      -0.47985876      -0.86419337      -0.06575690
H       15.17530626      14.52074205      15.10793923      -0.33608528       0.14155716      -0.49312608       0.40477300      -0.01478345      -0.08002922
H       15.40863289      16.33264225      14.77793669      -0.09480090       0.36454420      -0.82191342      -0.08414783      -0.23136793       0.27467873
H       14.80170986      15.77310951      16.35326076       0.28700817      -0.22097597      -0.65895819       0.21702829       0.13157412      -0.29318499
H       16.86383252      14.60389507      16.66694709       0.29720418       0.01217723      -0.21843562      -0.05166476      -0.22636820       0.04632855
H       17.46981715      15.25259527      15.14516666      -0.49593304      -0.43259724       1.11628797       0.18126200      -0.12780578       0.07695560
N       10.11420562      23.70673767      23.22895277       1.29697970      -1.24782113       1.88287950       0.54931402       0.10617810       0.26200144
C       11.23647340      23.37634631      22.31128135      -2.83935640      -1.37085582      -1.91465372       0.12100806      -0.11546920      -0.00565850
H       11.02237936      22.32845848      21.89475670      -0.06158582       1.15788080       0.27837566      -0.27512902      -0.09063457       0.26086989
H       12.16678286      23.22340317      22.76443924       1.63264536       0.72004093       0.88639965       0.21386737       0.29681986       0.15214238
H       11.03826457      24.09367091      21.51665224       1.10157207       0.17570147      -0.37073537      -0.12136026      -0.31062833      -0.03946440
C        8.78553766      23.65775480      22.63130277      -1.08385296       0.36756507      -0.53177321       0.46803989       0.01802276       0.71506407
H        8.58361876      24.60457338      22.07350768       0.08370115      -0.53612928       0.22148562      -0.16889947      -0.22093896       0.11044906
H        8.05269693      23.49646809      23.42582891      -0.21462406       0.35779109       0.25663473       0.02157354      -0.24774525       0.01470778
H        8.64353659      22.77361139      21.98945897       0.50339280       0.11330269      -0.18013761       0.03867724      -0.24896895      -0.21728358
H       10.30060558      24.58021689      23.76833994      -0.13090445       0.30015063      -0.26128294       0.25221193       0.14696858       0.22654289
H       10.18449551      22.97637164      23.98088228      -0.34638069       0.09598547      -0.14659702      -0.08269275       0.05961807       0.07679507
Cs      10.37011878      16.66834335      22.89418940      -0.13420738       0.00962132       0.04660768       1.55567919       1.48408334       2.76801324
Cs      16.68090574      23.65513912      16.15444641      -0.11568441      -0.07010696       0.06964894       0.80407973       3.55896118      -2.91546015
Pb       6.67406561      20.29576000      19.68254772      -0.05460036       0.00605959      -0.27540336      -1.08194166      -0.86187819       1.60308771
Pb      13.20546773      19.82169036      19.56044860       0.00467763       0.20494608      -0.07770620       1.16971223       0.73975288       0.87322906
Pb       6.31536125      20.07942824      12.85295879       0.03689689       0.21385479       0.39080172      -0.06579560      -0.77960010       0.19153410
Pb      13.30205091      20.25238284      12.96565178      -0.06844846       0.10680905       0.05785079       1.13630806      -2.66983959      -1.90471512
I        9.89892793      19.73025076      20.47957495      -0.12116919       0.02206027       0.02898720       0.40781687      -3.39570258      -0.69100594
I       16.26720197      20.85358456      19.62550574       0.27550374      -0.04601530      -0.20754045       2.00958299       2.62587236       1.28552187
I       12.61078265      16.79810853      19.79824384       0.39908999      -0.05499791       0.11538975       1.01297433       1.21404946      -0.61828534
I       14.14634514      23.89025328      19.52420514       0.07294425       0.14548647      -0.16758818       0.32684345       1.94735855       1.79519002
I       16.44218126      20.08191820      12.98020827      -0.07214941      -0.02413326       0.09414169       0.62195319       0.93297484      -0.68926280
I       10.24711205      20.69733495      25.60671474      -0.20392376       0.04294535      -0.11007680      -3.87960504      -4.49325055      -0.23856336
I       14.16738413      23.80253526      25.89207335       0.16488236      -0.61829683      -0.10804624       1.95532550       0.95977156      -0.43530554
I       12.80395491      16.46781671      12.73691409       0.02802276       0.45787190       0.04981753       1.62878442      -1.67454398       1.96168688
I       20.34529521      21.56030557      22.14872399       0.02008604      -0.12371532       0.42853263       3.04567082      -0.05558231      -3.23525483
I        6.87867771      20.43483447      16.30948207      -0.03641486       0.01074719       0.13032503       0.11818353       0.02039778      -1.51449431
I       13.34602690      20.90995023      16.30044170       0.11064569      -0.09588659      -0.06902048      -0.12741272      -1.82565875      -0.87553029