640
Lattice="26.11250306968006 -0.010708684702108324 0.13130178466043613 0.04372710909729015 26.06296362378872 0.19158196778187314 0.1523112774976537 0.13934542664582922 26.40040671285192" Properties=species:S:1:pos:R:3:forces:R:3:momenta:R:3 energy=-2584.40966796875 stress="0.0010040921624749899 0.0005787123227491975 0.0002668944944161921 0.0005787123227491975 0.00171453517396003 -0.00023729720851406455 0.0002668944944161921 -0.00023729720851406455 0.001783996354788542" pbc="T T T"
Cs       9.31500842       9.45110066       2.86911836      -0.09226195      -0.17641191       0.19476321      -2.58524437       0.25062725      -1.29092852
N        3.07878832      15.74025306       9.18312513       0.14609520       0.60300132      -3.17894832       0.58424544      -0.14616171       0.25703812
C        2.84135643      16.40482142      10.42035760       1.27756430       0.08315235       3.21990775       0.50311941       0.05850483       0.21149093
H        2.80433721      15.62722726      11.21169983      -0.19595172       0.32838417      -0.04237408      -0.05061976      -0.00663019       0.06905311
H        1.99470538      17.08921140      10.53487756      -0.17486191      -0.17929107      -0.61512035      -0.10101200       0.16270413       0.15370887
H        3.80109879      16.96747611      10.63350420      -1.03423914      -0.13122724      -0.02336096       0.00428682       0.04152232      -0.01789086
C        4.52890749      15.38258638       9.04971309      -0.06872916       2.53456192      -0.57469122      -0.07295544       1.07762497      -0.65655596
H        5.13345985      16.28303292       8.72010534      -0.56427551      -0.65307407       0.64776814      -0.44390652      -0.14234453      -0.20880762
H        4.57866685      14.69984900       8.26791872       0.34435552      -1.59903311      -1.40667199       0.21984178       0.11617153       0.43499505
H        4.86633635      14.97729403       9.96936727       0.41687186      -0.43528697       1.02659399      -0.18303115      -0.21379993      -0.30186073
H        2.80568676      16.50024562       8.46937383       0.46229277      -1.07053394       0.10077989      -0.17849367       0.15561169       0.08605173
H        2.60161828      14.86402665       8.87308109      -0.68377142       0.60366307       0.81078989      -0.33842728      -0.01845461       0.19323717
N        3.13922667      10.33641099      10.75772935      -0.96070199       0.33846326      -0.33862111       0.91495559       0.48634444       0.39443402
C        2.48465795       9.68548009       9.54654000      -1.29683392       0.96539794       1.28458477       0.41198440       0.98253180      -0.83804013
H        2.59381513      10.36172128       8.71289557       0.44201947       0.20937487      -0.53090697       0.21477933      -0.02212655      -0.04359355
H        1.39403432       9.66806955       9.76125698       0.41320972      -0.26772816      -0.05907261      -0.12426270       0.03375904      -0.20231187
H        2.85839985       8.68799283       9.36131842       0.41483704      -0.27904522       0.03586287      -0.07785627       0.06367589       0.02081513
C        4.56135444      10.57025272      10.53903305       0.94670474      -0.71663141      -1.36850066       0.35816688      -0.61965177       0.53230193
H        4.62663368      11.07855089       9.55454435       0.26419363      -0.54470753       0.21804203      -0.13319406      -0.10456640       0.30099615
H        5.15240399       9.60120914      10.59304381      -0.77907108       0.84868078      -0.42260134       0.10938824      -0.03175402       0.02757067
H        5.01281612      11.24259357      11.23074053       0.10727250       0.59181213       1.00171994      -0.19774725      -0.01582779       0.02334527
H        3.01376049       9.76160873      11.58625775      -0.16976288      -0.64756317       0.64093938      -0.08642642      -0.17080505       0.09896017
H        2.61596692      11.22817515      11.06434937       0.61903377      -0.66493009      -0.64439439      -0.17991726       0.07921764      -0.24375760
Cs      10.29357812      16.71667283       4.01405715      -0.08959796      -0.06980112      -0.04900097      -3.43567497       0.37822604      -1.24457296
Pb      -0.28563754      12.59053707       6.68081311       0.47886802       0.34249416       0.01660830      -0.89933148       2.28431297      -0.68220437
Pb       6.86980213      12.74608152       6.57952778       0.12778491       0.04149388       0.01843978      -3.81185784       4.04335398      -5.16734292
Pb      -0.63023885      12.82327653       0.05917940       0.20668869      -0.06407863      -0.01420292       1.75338610      -3.06644229      -4.84250557
Pb       6.85945987      13.13617227       0.14765095      -0.07663418       0.20863082      -0.17232215       1.27441088      -0.70749784      -1.65375490
I        3.18353344      12.68325207       6.21483992       0.09110054       0.10921471      -0.00220797      -1.47921055      -0.73493430      -1.90787027
I       10.30758341      12.68450725       6.25930209      -0.39445471      -0.20434232      -0.06725012       2.45444680       1.34894723       4.44114840
I        5.96548399       9.68124138       6.45870862       0.17198617      -0.02494889      -0.05942967      -2.49400488      -0.37371009      -1.06477612
I        7.75507060      16.06496067       7.00716572      -0.07520462       0.08425458      -0.06033334      -0.01162174       1.48743768       1.73791703
I       10.19502546      12.62535796       1.37335974       0.11890279       0.19762578      -0.13212758      -1.94598571      -1.52685352      -0.83978315
I        3.57246559      13.11118562      12.77110716      -0.19075706       0.22050102       0.20102423       2.76717212      -0.22389599       0.27108544
I        7.03748251      16.38065789      13.01350178      -0.00209284       0.21268971      -0.09733213      -0.58735863      -1.01004834      -1.22142919
I        6.44838371      10.17831782       0.15827267       0.09777556      -0.91649137      -0.09865169      -2.06563205       2.44531943      -2.99964467
I       13.19314756      13.15474996      10.52092219       0.02768067      -0.13916895       0.05873246       1.46160967       2.37950871      -1.17950933
I       -0.66148609      12.82360217       3.16962501       0.00049818       0.08109533       0.22009567       2.47453260      -2.25525706       1.24041440
I        6.72301945      12.50671754       3.17965726       0.01402434       0.04778354       0.40188567       3.80740292       1.50504770      -1.64831709
I        7.82064809      12.16253400       9.45830876      -0.33042082       0.31050829       0.02282975       4.05151188      -0.03252390       3.41717835
Cs       9.94109028       9.28725020      16.43658548      -0.11325235       0.17663942       0.05795468      -0.52685797       0.87474927      -2.23827496
N        4.14005760      16.96728982      22.73700468      -1.34237561      -0.51362404       1.40813562      -0.19141964      -1.10376843       0.50215030
C        5.05781611      15.81022621      23.00714291       1.01338990       0.00042790      -0.42289850       0.54550764       0.26485805       0.15090953
H        5.15313723      15.51302356      24.07634543      -0.54258124       0.63690082      -0.25502149      -0.16505944      -0.05922521       0.24543556
H        6.09665846      16.09278243      22.68563410      -0.79880141      -0.25693321      -0.01654812       0.00341294       0.05320349       0.17323607
H        4.68240134      14.91620126      22.45293474       0.14454397       0.59149557       0.13990420       0.06563837       0.20565530       0.04800775
C        2.76067003      16.69057438      23.35585751       2.12995669      -0.89257628       1.28060229       0.50087124       0.84189464      -0.12816305
H        2.50712810      15.66428919      23.19068033       0.15998560      -0.96878773      -0.37415320      -0.17352760       0.15836465      -0.11035507
H        2.00520943      17.24019670      22.93470634      -1.66568485       1.82317898      -1.24628068      -0.38074481      -0.13184186       0.16408300
H        2.74987327      16.83228408      24.44855176       0.41186438       0.20650750      -0.20139610      -0.05966828      -0.08705767      -0.11915099
H        3.98117620      17.17382832      21.74518301       0.10292497      -0.37110042      -0.79997276      -0.12886353       0.02299092       0.10601714
H        4.52940169      17.88998028      23.03966049       0.14983657      -0.26084141       0.59040060      -0.12480174       0.01069390      -0.07875978
N        2.72204380       9.17133153      22.65331097       0.14470633       1.97279588      -1.42427674       0.75137658       0.89760198       0.34973111
C        3.71103427       9.30608409      21.53105652       0.77968087      -0.50876440       0.62388015      -0.23419706       0.32273722       0.39642967
H        4.68547677       9.11920480      21.98415772       0.16675048      -0.12557839       0.09910590       0.03844872       0.06884018      -0.06884982
H        3.79345269      10.27692713      21.05400143      -0.63518174       0.53767251       0.11806277       0.20449086      -0.07010782       0.09177843
H        3.56268456       8.52553815      20.79611404      -0.31792452      -0.15937231      -0.33576827       0.01369921      -0.02477697       0.06175579
C        3.20052395       9.81958213      23.90651980      -0.17429825      -1.16223730       0.44087574      -0.19122347      -0.53901962       0.02713108
H        4.24609828       9.46304740      24.07541367      -0.71301826       0.18588423       0.09760747       0.10297142       0.15044112       0.06964321
H        2.48609654       9.46293331      24.69729290       0.77682123       0.61112121      -0.27296183      -0.08601526      -0.09973373      -0.23080904
H        3.19335314      10.89169095      23.74552492      -0.08174757       0.38106376       0.16067072      -0.33741142       0.04613244       0.09198604
H        2.44930856       8.22173388      22.77058409      -0.03687190      -1.92961702       0.47773047      -0.00589692      -0.07839434       0.17171651
H        1.80858909       9.54807486      22.33233348       0.13335741       0.49027727       0.05946436       0.28910499      -0.21860202       0.03099337
N       11.52385219      16.34675433      16.94342631       0.69881599      -0.63930219      -0.80757758      -0.56700828      -0.88543222      -0.30627628
C       11.67043348      17.74679697      17.35734372       0.37432371       0.08301044      -1.61308170       0.09714480       0.44273533       0.71370617
H       12.48254410      17.86975775      18.04942427       0.31654578      -0.23951154       0.73319512      -0.17100182      -0.00789254      -0.13658218
H       10.72911381      18.01559940      17.76196380      -0.93860798       0.70979629       0.50128126       0.08753765       0.00635524       0.19445163
H       11.97237751      18.32518651      16.46545512      -0.58255293       0.07233806       0.06965781      -0.11097175       0.05966228      -0.10032453
C       10.32036144      15.93057225      16.16290274      -0.75027278      -0.04314578      -0.64899864      -0.37440603       0.53905302       0.05824391
H       10.24046163      16.74955640      15.39176398      -0.21842003      -1.16847648       0.15504895      -0.07691898       0.12572539       0.16706433
H        9.36427965      15.86718849      16.73460458       0.69531146       0.54024447       0.25089462       0.10232958       0.31254671       0.16068065
H       10.45819807      14.85323183      15.81941050       0.12980018       1.38172381      -0.18152979       0.02294473       0.07350650       0.27133911
H       11.60495180      15.79173537      17.75905708      -0.10485166      -1.14581957       1.60464847       0.28459873       0.24701631       0.15889575
H       12.33637286      16.03017456      16.37830160       0.04596418       0.25216061      -0.10111492      -0.05649018       0.13912461       0.00799646
Pb       0.41891173      13.17179637      19.79980657      -0.07176088      -0.04364372       0.04910910      -4.10927228       6.30536732      -2.08357126
Pb       6.78805703      13.46158332      19.71850030      -0.00829686      -0.05301451      -0.00852699      -0.39947308      -3.47885401       3.40203685
Pb       0.34784677      13.08352002      13.48349502       0.16417809       0.08322955      -0.03499136       2.36188670       1.64322672       0.81541923
Pb       6.64800546      13.43279968      13.26792809       0.25682816      -0.14958182       0.22474383      -1.04352147      -0.42815122       0.29126099
I        3.47110517      13.70227175      20.00291557       0.17775524      -0.11919795      -0.11088818       2.44793054      -1.44595080      -0.64131420
I       10.24104531      13.01223254      19.33141388      -0.49406507       0.00469513      -0.07614689      -1.48323513       1.66700870      -0.07020113
I        6.98891739       9.71534159      19.14323431      -0.17336986       0.09910924      -0.08402757       4.47562996      -0.95042324      -1.23432140
I        6.99929366      16.82253266      19.62929971      -0.07226563      -0.48189752      -0.13761366      -0.23708287       0.58486570       0.98276734
I        9.65667806      12.64278609      13.55658634       0.17094186      -0.01047241      -0.00612768       0.43180312       0.25019635      -1.36016114
I        3.87999362      13.23444306      26.68077005      -0.07542203       0.12373662       0.09312671       2.69456399       1.42501635       0.27625688
I        7.38193062      16.44551686      27.08689653       0.15450066       0.13211364      -0.04085091       2.29837603      -0.50072665      -0.79506959
I        6.84251542       9.85387276      13.81178307      -0.07605498      -0.01289282       0.06357104      -0.75642387       0.02108091       0.14230440
I       13.20388087      13.36464702      23.43602642       0.00720533       0.11835557       0.08750848      -0.07714811       1.47979923       1.17772449
I        0.82686301      13.65687474      16.61120492      -0.00926564      -0.15069087      -0.05249685      -1.99459022      -1.77894184       2.22421144
I        6.05757031      13.37703282      16.66074458       0.01621043       0.02135318      -0.14889518      -0.10882777       1.31507837      -3.73611470
I        6.91850518      12.87447404      23.03728672       0.06212879      -0.15721154      -0.05428174       0.63801937      -2.11122322      -4.14342482
Cs      17.20554228      15.54755824       3.92224108      -0.04604544       0.31089568      -0.14607700       0.96135296       5.48743701      -2.68861821
N       10.14711139      23.64584941      10.35261154       1.56925852      -1.33081244      -0.81536420      -0.21181652       0.39090228      -1.09770776
C        8.78912124      23.10748307      10.66857321       0.09843195      -0.08346343      -2.75183167      -1.11378379      -0.99734621      -0.22320917
H        8.78008235      22.00492764      10.39945111       0.13756458       0.91829071       0.56836306       0.17528728      -0.21528577      -0.12017371
H        8.13853420      23.61040592       9.88623619       0.10938780      -0.44212549       1.21062790      -0.06304339      -0.18400274       0.13543722
H        8.55816810      23.34953444      11.68716130      -0.40199146       0.00880563       0.63220578      -0.05808463       0.26140768      -0.32677592
C       11.29589579      22.53827480      10.20310753      -2.65516924       0.20603405      -0.41826845       0.04633817       0.55366464      -0.76786495
H       11.10207057      21.81095107      11.02980674       0.17448193       0.35099365      -0.63310861       0.00758924      -0.17118944      -0.02638015
H       12.25373067      23.02826904      10.33151831       0.21035440       0.11330738      -0.31491980      -0.30040898      -0.18509935      -0.04011361
H       11.01632523      22.13511173       9.17322359       0.99408935       0.10053311       1.22282122       0.07740412       0.06146707       0.13848741
H       10.46067639      24.27744004      11.05581874       0.31635134       0.81450294       1.60183001       0.05156318       0.11164378      -0.03816239
H       10.19084334      24.26564085       9.51280905      -0.37335132      -0.44311817      -0.29519515       0.04739630       0.06874538       0.09337516
Cs       9.84761945      17.64924438      10.33895098      -0.01153757      -0.01306617       0.09798338      -0.87721437      -2.01224679      -0.65012467
N       16.53040541      23.62234068       2.40017715       0.45633715       1.06753446      -1.93228356       0.04116122      -0.02259010      -0.74988741
C       17.35343314      22.48115071       2.77345414       0.10184817      -1.37351422       2.50358327       0.56757893       0.33725635       0.17753851
H       17.65804025      21.83676033       1.92533106      -0.37297770       0.37036537       0.34777917      -0.15549955       0.25056367      -0.07683232
H       16.73048408      21.96407138       3.54878632       0.37611049      -0.27272106      -0.81712887      -0.34023069      -0.32923986       0.13471099
H       18.24090467      22.74202487       3.39931955      -0.29926012       0.42319150      -0.71145315       0.20691982      -0.08441974       0.11167269
C       15.99513256      24.48088003       3.53590054       0.33675185      -1.24697308      -0.58464478      -0.99966150       0.75261657      -0.06882300
H       15.68068023      23.76315070       4.29562744      -0.56038258       0.11975726      -0.03321394       0.01180706      -0.09058540       0.16512034
H       15.24078298      25.12076580       3.09498088      -0.46437701       0.15651592       0.21494468       0.08121630       0.09397851      -0.12163275
H       16.78376643      25.06321195       3.97517053       0.72721532       0.43720872       0.00651410       0.09433207      -0.27642913      -0.06311760
H       15.74613528      23.26350913       1.75881262       0.39833116       0.51656557       0.77073440       0.00595048      -0.12572157       0.07653146
H       17.14427905      24.20303790       1.74780538      -0.80516304      -0.15928807       0.48669012       0.03495676       0.03167190       0.06156062
Pb       6.72877484      19.55779210       7.05153092      -0.02875440      -0.15536620      -0.43508094       0.07473889       2.63763698      -1.35408970
Pb      13.10535528      19.73720101       6.61600960       0.17549174      -0.45708554       0.39047867       2.92256981      -1.31312263      -2.97107210
Pb       6.42276418      19.37741017       0.25973543       0.09715104      -0.05893639       0.23372780       3.68923661      -2.41688239      -1.26790136
Pb      13.19598781      19.74879624       0.28971732      -0.03365589      -0.04892977       0.16406861       1.32107493      -1.08865331       0.28060520
I        9.93324578      19.91924954       7.06810832      -0.09240931      -0.01566501      -0.06135857      -0.34636011      -1.23208851      -0.20701037
I       16.21460887      18.46439609       6.65946667       0.08349303       0.02758308       0.12115450      -0.21487439      -0.31177898      -3.70994546
I       12.21914657      16.01094637       7.91608383       0.02611523       0.49068467      -0.04097286       0.13190146       2.09531031       1.08532249
I       13.38800595      22.54777439       6.08546528       0.16042108       0.46723091       0.07901974      -2.31737769      -1.31789760       2.33902942
I       16.54398066      19.11775810       1.28803928      -0.12042497      -0.18922631      -0.32801911       0.58700774      -0.92216105      -2.26430573
I        9.98361298      19.97701833      13.55255487      -0.14229515       0.03301595      -0.04588414       0.59997249       0.73120211       0.16293365
I       13.70490069      23.25972734      13.93771316      -0.03392672       0.06766485      -0.07706065      -1.70919221      -0.90419373      -0.73956862
I       13.11023972      16.52771845       0.74991301      -0.09091461      -0.11035716      -0.12997496       1.24129459       2.30376816      -1.47993318
I       19.69907669      19.02351467      10.12950766      -0.15950691      -0.03558240       0.50972020      -1.45377766      -0.02439430      -2.32743606
I        6.76762387      19.38511472       3.66639688       0.09103667      -0.13338530       0.02937871       0.65178422       0.20726364      -1.10744427
I       13.11321588      19.21440104       3.75643995      -0.07714184      -0.05087870      -0.29507746       0.81155366      -3.56175547      -1.67642999
I       13.62442718      19.08019952      10.74592116      -0.22035258       0.24972614      -0.66592200      -2.50258892      -0.68482169      -2.05097471
N       15.96099184      15.96688806      16.30757697       0.17438689       0.11804479       0.09788918       0.06627309      -0.17049736       0.33874142
C       15.60180149      17.18029198      17.13621676       2.37767390       0.78088436       1.60007760      -0.08649188       0.53400288      -0.23428220
H       15.73055599      16.93832313      18.27084714      -0.28157844       0.13606843      -1.81892764       0.38807771       0.05035374       0.05644335
H       14.61342060      17.55587911      16.95224831      -0.81243981      -0.13880455      -0.24772786       0.16829866      -0.18467970       0.03200611
H       16.29053604      18.08885944      16.92367428      -0.61058019      -1.54251913       0.07257023       0.04024962      -0.00646476      -0.07107921
C       17.32324975      15.30213523      16.60181912      -0.90882132      -0.45777784       0.43675093       0.73372057      -0.16603775       0.67479184
H       18.08844767      15.94146633      16.17826557       0.26560929      -0.04202056      -0.51361255       0.02792874      -0.01664842       0.03651335
H       17.29663509      14.21478758      16.24668780       0.15083306       1.46112908       0.13359629      -0.26466937       0.05850709       0.08401316
H       17.51138167      15.29479752      17.69899104      -0.50200163       0.06099366      -0.40911197      -0.05049652      -0.00576870      -0.06175584
H       15.83751417      16.17676800      15.28099725       0.23863349      -0.15250895       0.67111281       0.09667785      -0.01238283      -0.14623101
H       15.24533086      15.23933659      16.52211064      -0.15822476      -0.19057282      -0.04503250      -0.04000212      -0.17294164       0.18417821
N       10.19299078      23.01734363      22.24557558       0.30154889       0.29235891       0.04120278      -0.72373250       0.14274011       0.25691083
C       11.10272968      22.57906547      23.33994687      -0.45579580       0.90607058       0.35115950      -0.12083100       0.59051013      -0.36521021
H       12.06524196      22.27975340      23.00126565       1.04076107      -0.00298643      -0.69501344      -0.09778242       0.15704836       0.08563117
H       10.66215826      21.68042665      23.78241075      -0.19056092       0.12632119       0.32508873       0.09522829      -0.00545072       0.08802708
H       11.17805479      23.43485178      24.04621707      -0.04350673      -0.59852561      -0.04690639       0.05106616       0.21554977       0.24864199
C        8.84606045      23.08934218      22.80318260      -0.82056291      -0.86455189      -0.63666486       1.25081719      -0.90871920      -0.01672645
H        8.57165730      22.09768173      23.24412584       0.21216450       0.75985889      -0.02211664       0.11948032      -0.14458358      -0.10212982
H        8.15515365      23.27704256      21.96307000      -0.01118748       0.18174701       0.38390362      -0.09585919      -0.17789589      -0.05223334
H        8.90232707      23.90963985      23.50634908      -0.58651510       0.16869981       0.52323093       0.33516801      -0.07243058      -0.20991203
H       10.21022913      22.34656967      21.47293303       0.03177642      -0.88395541      -0.56742349      -0.06509043      -0.22596051       0.12296408
H       10.36247813      23.92956934      21.75408682       0.57099479      -0.08447196       0.43797391      -0.11239573       0.04059343      -0.09479095
N        9.04599587      17.35184129      23.64371539       0.85469525      -0.71818479      -0.25719098      -0.46079322       0.34930949       0.29785003
C       10.35188289      17.85137296      24.17707133       0.67680790      -2.12909792       0.62928680      -0.43283318       0.01514049      -0.32975869
H       10.68840007      16.91509465      24.80221054      -0.12256978       1.98093363      -0.66467009       0.01233683       0.02831503       0.22601269
H       10.17652626      18.74736463      24.79649210       0.12120864      -0.26964055      -0.13844691       0.28247317       0.18549501      -0.09021079
H       11.11214202      17.98250218      23.38805380      -0.46612047       0.19502728      -0.06768030      -0.20153899      -0.29255905      -0.21387458
C        9.13621278      16.25821785      22.61468277       0.28600106       0.40408763      -0.50023299       0.37471125      -0.20505640       0.42288873
H        8.49608222      15.40927043      22.85244854      -0.15787819      -0.05960545       0.33438289       0.06888573      -0.02346750      -0.21209382
H       10.18477538      15.87842951      22.56150854      -0.57045769       0.56423106      -0.13416968       0.09532622      -0.09160437       0.09013686
H        8.71515569      16.70015115      21.67871453       0.75186491      -0.32056085       0.17825091      -0.15448337      -0.14438547       0.18823216
H        8.35800643      18.10080785      23.33862032       0.17194692       0.08459280       0.09706725       0.10620104       0.12920761       0.29385094
H        8.67346299      16.91381186      24.47609213      -1.03205284      -0.13367184       0.58177269      -0.24173585       0.27177781      -0.16182905
Cs      17.17669535      23.31635238      16.75313141      -0.15388055      -0.13481436       0.01552742       1.96281685       1.50747969       1.71535512
Pb       6.58544272      19.89401151      19.96553656       0.04735478      -0.12816967      -0.11846646      -5.00321313       1.13151629       1.05168809
Pb      13.23362059      20.08308713      19.99841935       0.05097331       0.12893898       0.10566886       1.58466511      -4.81893370       7.47140948
Pb       6.53595734      20.40333423      13.23560754      -0.22718146      -0.06956555       0.20117367       1.73739646      -2.43765382       4.60110491
Pb      13.81076635      19.75346881      13.56770971      -0.51070334       0.11347959       0.49460916       3.50618803      -0.33112584       5.93696600
I        9.90480858      20.40604183      20.02147344       0.03087560      -0.16127792      -0.09754093       1.00390682      -0.54415489      -0.27984773
I       16.69615664      20.22505586      19.60742024      -0.29041103       0.10032090       0.20588420      -0.91899933       3.06840525       1.87223603
I       13.08311248      16.54589665      20.65640461       0.06551746       0.06200786      -0.06291700       0.00865275      -0.66860418       2.20534214
I       13.69370900      23.28870016      20.35622743      -0.08494033      -0.22571222       0.02698243      -4.53170891      -5.21114383      -1.15287946
I       16.75928472      19.38565655      13.74940371       0.16431469      -0.16245524      -0.05792061       2.03541661      -1.56270141       0.90941577
I       10.05643627      20.14525658      27.21986424       0.18210510       0.01126740       0.01654949      -1.44846480      -2.03256582       2.32303862
I       13.29998914      23.24898331      27.18406355       0.20359566      -0.14836794      -0.02668923       3.23827484      -1.49336771      -1.63974912
I       13.12332658      16.57326792      13.43484868       0.15890259      -0.18992333       0.15904384       2.26655673      -2.25014271      -0.34652417
I       18.56191880      19.73503945      23.38201912      -0.02594601      -0.01662810      -0.21949440       0.44950064      -0.30121224       2.84104468
I        5.81601919      18.98516018      16.53318759       0.23713004       0.26206334      -0.13467404      -0.45463264       3.86561910      -1.69986887
I       13.59086630      20.65451939      17.02109608       0.15237682       0.09732654      -0.08310920      -0.04124410      -1.71387439       0.22830018
I       13.85867208      19.45467012      23.50330976      -0.03184740       0.36910743       0.11832400       1.23652998       1.16549878      -3.13491990
Cs      10.25711584      23.17294173       4.28615455      -0.10711775      -0.08099087      -0.21642943       2.03066181      -1.98002317       1.67258760
Cs       3.63898046       3.70079674      10.06911137      -0.00643793       0.08048544      -0.04264220      -3.81847568      -0.27305394      -0.50946639
Cs       3.49194805      22.45243699       9.39597280      -0.10329689      -0.11912028       0.14130071      -1.04828027      -0.95434312       0.98991446
N        9.57884206       2.75559158       2.94932895      -0.59964338      -0.55820490       1.82936394       0.57797193       0.24883077      -0.12032016
C        9.02991922       2.96802647       1.61824609       0.90478836       0.90998276      -1.09745761      -1.40500299       0.20092161      -0.95111978
H        8.76863075       1.97573993       1.28104284      -0.37184490      -0.26427025      -0.60762740      -0.10458837      -0.08848698       0.03472574
H        9.87346552       3.39210306       0.98081254      -1.02823415      -0.35581762       0.44892806       0.03897022      -0.40176308      -0.27157340
H        8.14121690       3.66226512       1.61709892       0.73001433      -0.51467136       0.22013032       0.15890981      -0.14219320      -0.08923706
C       10.11267998       4.02663901       3.59660614      -0.78809917      -1.42729021       0.77983216       0.99766169      -0.08963430      -0.04568907