720
Lattice="26.20183362117955 -0.09209894465315874 0.18334906368392836 -0.1545648029947324 26.584648956196403 -0.17234131484912413 0.19211303409028768 -0.22121858642699838 26.30912742117162" Properties=species:S:1:pos:R:3:forces:R:3:momenta:R:3 energy=-3007.039794921875 stress="0.00026998863904736936 0.0008652504766359924 -3.549461325746961e-05 0.0008652504766359924 0.0016646995209157465 0.0003483092878013849 -3.549461325746961e-05 0.0003483092878013849 0.0011218130821362136" pbc="T T T"
N        9.48222293       9.21587824       2.93258724       1.23666302      -1.10145541       2.30378609       0.37004491      -0.62413958       0.39767142
C       10.57104861      10.21134732       2.69282959       0.17801332       0.49644307       0.20612567       0.14621201      -0.99505536       1.63779473
H       11.59303932       9.83335263       2.84310322      -0.30807917      -0.45178674       0.42715314       0.33155901       0.27015641      -0.19335254
H       10.40375430      11.08342423       3.34983129      -0.04638960      -0.30503965      -0.04942942      -0.21062220       0.31137131       0.10916797
H       10.58832722      10.55236296       1.67694444      -0.50109880       0.22461773      -0.88407514       0.03181294      -0.09793233      -0.12409293
C        8.11440921       9.70188425       2.78140705      -1.78568568       0.17678821      -0.23001909      -0.09184855       0.01346010      -0.36635555
H        7.79911535      10.62956950       3.36690597       0.86209597      -1.13019576      -0.29706889       0.06445113       0.21599633      -0.15129172
H        7.41111588       8.81592643       3.02332889       0.79862986       1.40809702      -0.41788949       0.00671731      -0.04238869       0.16245808
H        8.06906162       9.97123778       1.70655272      -0.50814053      -0.05499452       0.22500114      -0.09809553       0.12779802      -0.23303260
H        9.64419904       8.89833936       3.95466250      -0.36662560       0.10865838      -1.27165691      -0.01420803       0.27727043       0.13576101
H        9.53887813       8.32836278       2.34001507       0.47833361       0.67851386       0.12709683      -0.06564062       0.00443795      -0.04175853
N        3.70060890      16.20206879       8.84263660       1.56132717       1.39385026       0.11619922       0.25657676      -0.15295326      -0.01841116
C        2.31956143      16.32661914       9.30404454      -0.57160817       2.71685013      -0.12658861      -0.05503150      -0.07116416       0.36023861
H        1.66552536      16.71973508       8.46131212       0.48299901      -1.01373156       0.69303446      -0.23508440       0.12896257       0.03882241
H        2.29500949      17.18341707      10.02781667       0.01404871      -0.63733332      -0.14223839       0.06803952       0.21346337       0.03113123
H        2.05338770      15.42132060       9.79798031      -0.64360305      -0.85253338       0.21380178      -0.19385840      -0.13633751      -0.04810072
C        4.70976508      15.76588994       9.93435342      -1.86265725      -0.07729080      -0.32917918      -0.33375944      -0.00203669       0.87921857
H        5.65078386      15.62284671       9.39913490       0.29900164       0.15549602       0.44658971       0.11099374       0.06825392      -0.01589031
H        4.28434352      14.81205166      10.36793800       0.48730939       0.60902346      -0.53731295      -0.14516687       0.16927478      -0.12270060
H        4.63197003      16.50826624      10.72967247       0.52817146       0.24112773      -0.07929756      -0.01321792      -0.22825143      -0.32889113
H        3.97186867      17.11597474       8.29859849      -0.16570700      -1.46339871       0.92916158       0.20063041      -0.26252133      -0.05292126
H        3.76224491      15.42029174       8.20373501      -0.19262484      -0.67675101      -1.25249103       0.06848014      -0.19097908       0.07925910
Cs       3.22654491       9.58940690       9.73304580       0.26566595      -0.19353082       0.17345870      -1.63085102       2.38831689       0.71617959
N        9.24127113      15.93855574       3.46599961       1.07138150       0.03624487       1.27002586       0.66731371       0.09486050      -0.77137204
C       10.35187000      14.94426090       3.20758579       0.56314438       0.97022579       0.84379796      -0.15317054      -0.38168859       0.30775145
H       10.76107595      15.14431250       2.20414235       0.21754959       0.15799540       0.39328190      -0.18215224      -0.24106334       0.00203293
H        9.91921161      13.96559338       3.20146657      -0.39139496      -0.83822589       0.07713373      -0.04159388      -0.22280305       0.04051064
H       11.08205772      15.02884858       4.07437550      -0.54474144      -0.01867755      -1.14848803       0.16880760       0.05055264       0.05966521
C        9.70827051      17.35539411       3.54926245       0.05960381       1.02386165      -0.52675040       0.72350206       0.27693367       0.60622651
H       10.50508358      17.53983220       2.76081245      -0.76043386      -0.15558040       0.96446532      -0.25023525       0.08426977       0.05798149
H       10.03162999      17.55488582       4.59593261       0.22855376      -0.03755737      -0.67074405       0.09499558       0.00560929       0.08419354
H        8.80593246      17.99684882       3.34819686       0.79180929      -0.29156033       0.08470177       0.10500560      -0.35928814      -0.24448495
H        8.85513364      15.77482426       4.44647116      -0.38545838      -0.36737169      -1.39670454      -0.08464212       0.02767285      -0.09506694
H        8.58508909      15.89060779       2.68524066      -0.77899680      -0.27403815       0.12225013      -0.25760946       0.16592152      -0.11437415
Pb       0.15056562      12.71167095       6.57722851      -0.02357885       0.27480049      -0.09035187      -1.85693511      -1.08274696      -2.03605487
Pb       6.66643011      13.69656544       6.65188422       0.03958574      -0.31433889       0.00490109      -0.00836692      -0.20202258      -2.18912456
Pb      -0.19281160      13.38153513      -0.18851932      -0.13078777      -0.05259616       0.00166928       0.23786495       0.69018733       2.30011420
Pb       6.40891728      13.87833934       0.27749908       0.05067584      -0.32466155      -0.36278784       3.52936109       0.06481687      -2.20475699
I        3.34035963      13.38682830       6.67693832       0.15227064      -0.00990076      -0.00940145      -0.04356373      -1.70327412      -0.61759360
I        9.90407535      13.11189350       6.51611541      -0.07101288       0.00146910      -0.07872386       0.89099040      -0.96523224      -2.57897031
I        6.35910620      10.13407005       7.28284386      -0.05474728       0.10729539      -0.00835919       0.10520583       0.38719220      -0.22255237
I        7.05435685      16.75433717       6.64981336       0.05571075       0.08033876      -0.01988005      -0.22802934      -1.32926817       1.13392358
I        9.86313793      13.23294739      -0.29309483      -0.34605741       0.08068448       0.01588541       0.89917296      -0.07722824      -0.37090375
I        3.44623100      13.73634115      12.77076121      -0.15189593      -0.18250945       0.13604071       0.52367263       1.44163230       0.46754752
I        6.87429649      16.57424160      13.78711577       0.06772844      -0.01560775      -0.11355274       0.55767969       1.38667653      -1.02727612
I        5.78660106      10.24669539       0.02729160       0.20692745       0.03348203      -0.04163462       1.02119845       2.30369666      -0.55567857
I       12.25648489      13.66931100      10.10980892       0.08603501      -0.02517380      -0.06036190      -1.56705979       1.26245788       4.38332266
I        0.24066317      13.42741514       2.92028009       0.08505910       0.05039738       0.21750053       3.76016071       0.63437625      -2.40918144
I        6.28365769      13.49258717       3.41805119      -0.07214117       0.08024678      -0.14055260       1.52246541       1.05850534       0.91653191
I        7.51582727      13.21166805       9.75759934      -0.11674682       0.04279698       0.18294834      -4.54890392      -0.32622919      -0.77779514
Cs      10.28372874       9.61260324      17.28387787      -0.19140350       0.03964773      -0.16661295       1.99981439      -0.61710897       0.02748696
Cs       2.62596245      16.44449195      22.85150575       0.16175154       0.06629608      -0.02647115       0.23947621      -1.93333292       2.85569717
N        2.95868316       9.54637402      22.32620896      -0.80055808      -1.07993188       0.06481416       0.73649111       0.56773146       0.49792379
C        4.36416036       9.93091639      22.58390176      -0.36156259       0.85640983      -0.09084057       0.09950345       0.41724358      -0.86442812
H        5.00537991       9.24470303      22.12104719       1.04749399      -1.42887682      -0.66640814       0.17448052       0.21753904      -0.22433805
H        4.60704304       9.98563670      23.66017193      -0.36948179       0.19890424      -0.27466369       0.07269643      -0.01328469      -0.03111648
H        4.51013068      10.86254750      22.02094629       0.15020257       0.25049433       0.50136536      -0.19388365      -0.20985361       0.22177283
C        2.08489492      10.62048460      22.81092825      -1.39850379       0.59509766      -0.94717646       0.16808409      -0.39785706      -0.41466366
H        1.01652317      10.41797783      22.59970376       0.39493254      -0.28568077       0.23202874       0.16378953      -0.02192830      -0.01964753
H        2.27363207      11.58367456      22.32096503       0.44305668      -0.11942002      -0.27642757       0.20692295      -0.04068033      -0.09229531
H        2.26125703      10.76378116      23.84434965       0.08588202       0.02745025       1.38560888       0.21226433      -0.02801511      -0.00001348
H        2.65384579       8.62360112      22.79382376       0.50810336       0.85054631      -0.48812210      -0.37696599      -0.22504513      -0.16796014
H        2.75769068       9.40344143      21.30088002       0.24395032       0.07255538       0.49247994       0.19201703      -0.01023466       0.15139939
Cs       9.70736287      15.64898756      16.99011853      -0.04413441       0.08752390      -0.15355202       4.52247310      -0.59412994       1.11568907
Pb       0.18234414      13.56031755      19.71879518      -0.08370883      -0.08651880      -0.30418964       2.01199883      -2.51776969       4.78132889
Pb       6.53198077      13.12040876      19.57147467      -0.01410761       0.12252201       0.18220786       2.84773505      -1.57397291       1.58251738
Pb       0.09238886      12.63142721      12.75849835      -0.03621630       0.35427593       0.25056734       1.44646144      -0.24366447      -0.38201423
Pb       6.55848153      13.36785088      13.24458038       0.02151888      -0.03940394      -0.01774985       1.65556107      -2.89615782      -1.13235916
I        3.37128738      13.96883326      20.00260427      -0.04046451      -0.03609964      -0.00370339       0.87821108      -1.87296128      -2.55145018
I        9.93435898      12.60633671      19.31359266      -0.12457158       0.12252310       0.09923526       0.62838185      -1.11852221      -0.66056558
I        6.23664670      10.17385741      18.72178298       0.20590240      -0.14161613       0.25666303       0.81225082       2.75289250      -1.81198399
I        6.70614962      16.43767600      19.43717734       0.04538032      -0.01252219      -0.06409490       0.80890896      -0.21228756      -3.71817183
I        9.78477443      12.95443213      13.66750277       0.00717758      -0.00344498       0.08254533      -0.17915836      -0.38257881       0.05038168
I        2.97682105      13.84500875      25.62466531       0.43977522      -0.02526705       0.01570489      -0.67297132      -1.80044294       0.26225926
I        7.13255359      16.71006809      26.69650194       0.08747944      -0.35132319      -0.07096870       0.59363419       0.56586032      -3.40810742
I        6.45719466       9.96760250      12.49790888      -0.16499146       0.02810625       0.12700105       0.70915275      -2.60908120      -0.55760763
I       13.09518014      13.54871785      23.00287613       0.25200709      -0.02016966       0.03612494       0.90385614      -0.27314774      -2.45708563
I        0.60807731      13.70230405      16.18518856      -0.07472528      -0.10105665      -0.03761561       3.88745055       1.74119838       0.12505686
I        6.23222145      13.64162899      16.44342550       0.04247027      -0.01045080      -0.13326362      -1.42844622       0.85802964       3.33186785
I        6.63269260      13.62785020      23.03237224      -0.02279042      -0.04575107       0.09030558      -0.31765240       2.71040789       3.34910899
N       16.54290966      17.28663250       4.15950871      -1.01279472       0.99559168      -0.58894416      -0.02923469       0.95493402       0.79523202
C       17.40176855      17.94242613       3.11740309       2.64775808      -0.51891863       0.23626835      -0.20243755      -0.20434820      -0.01880342
H       17.65054341      17.26783255       2.24550686      -1.07114636       0.58816637       0.52845938       0.31231429       0.15761725       0.06694837
H       18.49113095      18.16953212       3.47380119      -1.65922097      -0.47048555       0.17773145      -0.00022981       0.07499367       0.01294806
H       17.01169316      18.93231761       2.95018309      -0.56664144       0.35205299      -0.89594787       0.12362055      -0.08308788       0.20367563
C       15.42695082      16.39785226       3.62108215       0.60756246       1.50336747       1.67273146      -0.52528597       0.19149832       0.42898835
H       14.70476445      17.09790921       3.26323246      -0.80766455       0.21355593      -0.63745367      -0.04888004       0.21360585      -0.16109945
H       15.02867549      15.74722749       4.38007260      -0.20686790      -0.10572164       0.64741787       0.39451225       0.11874245       0.04415526
H       15.88204741      15.82582656       2.89933180       0.84431153      -1.41007940      -2.16495107       0.24358301      -0.21278868      -0.03443521
H       16.03855701      18.06582553       4.68903691       0.76365914      -0.57963984       0.06246689      -0.13028171      -0.03700651      -0.18491935
H       17.16502097      16.79256068       4.78753017       0.40991562      -0.60834849       0.86140041       0.03416627      -0.07251295       0.00508265
Cs      10.68582536      23.27783053      10.08923052      -0.08774631      -0.07196669       0.03774048      -1.23988573      -1.23321723      -1.51376353
Cs       9.50200624      16.33877969      10.00649502       0.09401064       0.18533087       0.06053307      -1.07035651      -1.74148590      -0.03453928
Cs      16.74236439      22.67107337       3.94285258       0.00283980       0.15699327      -0.22256364       2.90812856       1.26048057       4.21052737
Pb       6.35200396      19.90888436       6.61988433       0.34307045       0.34666689      -0.10377142      -1.57184627      -0.66965657       1.63306974
Pb      12.85653907      19.51195457       6.43325896      -0.13830778       0.06085249       0.20016327       1.16984225      -2.42534409       5.84120429
Pb       6.48990528      19.85281313      -0.37504590      -0.04286442       0.30973563       0.11123219      -1.16511831      -0.50948359      -1.62993639
Pb      13.09698770      20.49335174       0.10984823      -0.02471359      -0.15899027      -0.09279785       2.27673946       1.94309008      -2.78072335
I        9.53760270      20.48500141       7.34625012      -0.01794509      -0.10680891      -0.02126604      -1.33707654      -0.50048188       0.88013834
I       15.89923601      20.06399617       6.42175887       0.12028682      -0.23439844       0.04457624      -1.18940454       1.26287236       0.80460209
I       12.99472638      16.26589418       6.76564252       0.00960968       0.27162887       0.02905616      -1.48300513      -1.65615935       0.26158747
I       13.13197282      23.07854768       7.06677968       0.00494643      -0.18618330      -0.03954713      -3.56140505       0.81685364       1.63235548
I       16.16430202      20.84171116       0.34657998       0.31572723      -0.05601689      -0.03012213       0.80397530       1.01320653       0.58838269
I        9.82430229      20.05609385      13.14858646      -0.09425680       0.01588762      -0.01222605       0.91154629      -0.53741928      -0.80986816
I       12.99835549      23.09292076      13.47836971      -0.06708727       0.28495187      -0.09394547       0.23070776       0.26401744      -0.37120791
I       13.11213817      16.92013459       0.15964529       0.04609383       0.01109393       0.05982779      -2.22493805       1.33030550      -0.83078089
I       18.51927436      20.10484034       9.86793049       0.24451948      -0.26230432      -0.13425854      -0.80922850      -0.13224223       1.97604914
I        6.42240649      20.10377901       2.84129562      -0.15376615       0.04975145       0.23443141      -1.26859691       0.95547668       1.49323048
I       13.14767880      20.64934804       3.17591982       0.04348494      -0.06944694       0.12491444       0.24474155      -1.58938604      -3.09540917
I       12.77428960      19.86762823       9.58542659       0.02365484      -0.15830663       0.07798788      -0.28199510       0.44951716       1.46051701
Cs      15.44893622      15.89458489      16.32038187       0.04414761       0.02982583      -0.08781678       1.94809600       1.91019211      -2.21203291
N        8.66896123      22.70048499      22.30112308       1.33997668      -1.11080815       1.98032715      -1.36239727      -0.13537872       0.54187973
C       10.04988378      22.04536093      22.09495943      -1.18641943       1.09259978       0.87622454      -0.09986481      -0.81600742       0.22630815
H       10.38197845      21.82207598      23.10544855       0.39411991       0.18260861       0.27231423       0.06427101       0.11194549       0.08045147
H       10.67977545      22.77269517      21.58823674       0.25236570      -0.14520143      -0.17428597       0.03636236      -0.06662447      -0.01649435
H        9.89447952      21.09311567      21.64361094       0.06457081      -0.65497614      -0.99723672       0.01253272       0.01912902      -0.09593959
C        8.75260084      23.74253013      23.43710663      -2.24201210      -2.87134210       0.65342722       0.60678137      -0.23669936       0.05855726
H        8.79032747      23.22202258      24.44660226       0.23606690       0.06750082      -1.12633263       0.15370206      -0.17219700      -0.15749077
H        7.80190456      24.28315164      23.49382376       0.33742605       0.56148741      -0.43691314       0.09050672      -0.02509871      -0.10984507
H        9.66823617      24.19776234      23.26574539       1.56689186       1.70432771      -0.26153254       0.39328281      -0.27277452       0.00890105
H        8.06599629      21.88197805      22.55408392      -0.29493408       0.48096079       0.19767052      -0.09162388      -0.11536878       0.16051646
H        8.27011120      23.06182542      21.43803837      -0.26470402       0.58227799      -0.80547165       0.20017197       0.06862491      -0.05877802
N       10.90458985      16.24014725      23.13120616      -0.80792604      -1.02012916      -0.00287831       0.78470088       0.00257720      -0.35899439
C       10.74454014      17.58662617      23.78552680       1.64995128      -1.54376706       0.41124233       0.37293520       0.50833064       0.29668347
H       11.32523618      17.65577873      24.71473349       0.31696094      -0.29912565      -0.09727065      -0.04070134       0.21516471       0.14157648
H        9.75398615      17.69160340      24.08870553      -2.07992144       0.35416551       0.10118195       0.29318360       0.21396899      -0.02076667
H       11.10579542      18.32165027      23.11063331       0.08003281       0.87348242      -0.82617520       0.06250377       0.26461745       0.35814480
C        9.93486857      16.03732896      21.91465807       0.38238929      -1.43770391       2.57891507      -0.26826548       0.11007899      -0.23986310
H       10.33923556      15.17835181      21.35328993      -0.20638818       0.41765880      -0.14334844       0.23350609      -0.11983755      -0.12624328
H        9.99849818      16.98922872      21.47383932      -0.37674975       1.11369393      -1.29628519      -0.29112289      -0.04167360      -0.01607148
H        8.94306611      15.77554215      22.36894977       0.59563547       0.40418408      -0.57457772       0.11452075       0.07693129       0.04325794
H       10.73988484      15.42521776      23.79605611       0.19570640       0.98988111      -0.41221245       0.11709652      -0.03239621       0.11510891
H       11.86268909      16.07287445      22.77053641       0.06682563       0.14648725       0.23556429       0.08041003       0.02609007       0.01940465
N       16.53103444      22.82416097      17.14091438      -0.26134790       0.49678995       1.03705099      -1.05145618      -0.10712285      -0.30458696
C       16.13096283      22.01210333      16.00243358       1.06405147      -1.86162281      -1.67018483      -0.01617899      -0.60780560      -0.59525987
H       15.56798568      21.12344419      16.41588208       0.31259967       0.71088115      -0.72739763      -0.10239149       0.00254890      -0.15892055
H       17.05460183      21.64161240      15.45453045      -0.74413624       0.28447028       0.67925300       0.08304175      -0.26331488      -0.13662577
H       15.58469411      22.59231217      15.23454280      -0.25570266      -0.01842636       0.65547305       0.14017096       0.30371762      -0.16650371
C       16.80194297      24.26006010      16.81800065       2.46145933      -0.45296872       1.86983508      -0.23913071       0.36650748      -0.17698285
H       17.83274514      24.26702322      16.44936690      -0.24932417       0.28929379      -0.80361627       0.53625800       0.30460908      -0.20365773
H       16.86654037      24.92120223      17.70912743      -0.32831028      -0.62305385       0.03755181       0.06624028       0.05739824      -0.01505179
H       16.03557463      24.62566689      16.21879338      -1.23926338       0.62934868      -1.59237566       0.10919398      -0.11233587       0.20837358
H       17.36165976      22.36403686      17.67371417      -1.48506045       0.75945043      -0.33539185      -0.08022949      -0.07450114      -0.24360371
H       15.63518964      22.84828622      17.68715812       0.72584627      -0.12471876       0.99035044      -0.20147735      -0.09148571       0.28125575
Pb       6.86163789      19.55400268      19.46962944      -0.21956703      -0.01991505      -0.05282514      -0.87093843       3.24151391      -0.86034368
Pb      13.46845858      19.76353497      19.57940614      -0.14008601       0.03795425       0.29762586       4.30089479      -1.58162759       4.56791015
Pb       6.65762998      19.71374853      13.14225162       0.03618424       0.20126782       0.66106940       3.62780076       0.34390817      -0.15084076
Pb      13.04562674      19.84047327      13.36124434      -0.12576874      -0.11570557      -0.04058262      -0.60626810       0.82501840       1.60542124
I        9.91428543      19.30235175      19.00881482       0.00424153       0.01995197       0.01909669       0.59373976       0.01961842       0.21797425
I       16.34506347      18.83409904      18.99797146       0.18537956      -0.06201860      -0.02758861       4.21538918      -2.32575703      -2.61480073
I       12.78394564      16.16340774      19.14474812       0.04788402       0.04654474       0.01064969       0.66474482      -3.22038146      -1.19059313
I       13.93741850      22.90047375      19.76258434      -0.01724484       0.05667275       0.02289951       0.88181435      -1.81327463       1.52774581
I       15.98327371      18.65291539      13.34059967       0.04478892       0.00230254      -0.00860331       1.62117417       0.64746241       0.60219273
I       10.04957728      20.37899268      26.23826430      -0.13449792       0.02909671      -0.05345091       0.04676679       1.40985518       3.31874215
I       13.35307739      23.37375426      25.79883456      -0.07773644      -0.13012558       0.02585710      -3.65156819      -0.30910609       3.11860080
I       12.17975750      16.81809271      13.29384371       0.00670106      -0.27819258       0.04783583       0.00571673       1.85889019       1.90643428
I       19.92055991      19.43246318      22.92329210      -0.04782051      -0.02486636       0.29185711      -1.82297877      -1.06592895      -1.21351176
I        5.93019421      19.90415123      16.50623301       0.13826162       0.00692890      -0.04260468      -2.05707280      -0.87711454      -2.88426945
I       13.04534890      19.58685257      16.57425592      -0.07675204      -0.09115855      -0.45809512       2.32472586      -1.46384391      -1.41715362
I       14.27790761      19.77539799      22.73186856      -0.20723608      -0.20462428       0.15169740       0.60236284       0.04363268       0.75701300
N        9.96993211      23.64401700       3.49794065       0.46068298      -0.20312360       1.52331522       0.69883131       0.10380348      -0.01120094
C        9.77474564      22.17959191       3.85606311      -1.04849395      -0.51121021      -1.23434473       0.87117090       0.69319663       0.02922251
H        8.66627524      22.01750484       3.86562504       0.75939770       0.11710474       0.41167847       0.02290814       0.15982755       0.24004893
H       10.26923128      21.94672376       4.78911093       0.00305291       0.07478587       0.45220664       0.19074025      -0.11327863       0.25368077
H       10.16612034      21.43885446       3.07277889      -0.21675998       1.39012725       0.59226819       0.03341192       0.07778427       0.36268099
C        9.14961521      24.10276722       2.38740758      -1.04530865      -0.97243383      -1.17460609      -0.03539586       0.08412284      -0.55108286
H        9.21164414      23.33880274       1.57549080       0.28503958       0.61115277       0.27974538       0.13875197       0.04670841       0.14280701
H        9.52411274      25.06708616       2.09809369       0.13076890       0.57119674      -0.51403260      -0.16668555      -0.02607441       0.16658626
H        8.06134884      24.18432959       2.59345909       0.51751534      -0.05012745       0.55049089       0.01999054      -0.07369672       0.12589899
H       10.97733724      23.76386233       3.25138009      -0.10004735       0.23685752       0.08966014      -0.11000432      -0.15150685      -0.02913283
H        9.80637484      24.32627650       4.32566945       0.23472627      -1.11394210      -0.79580724      -0.15891389       0.15507849       0.02009056
Cs       3.44973019       3.38019787       9.65951626       0.05062803       0.01488275       0.00904891      -1.86823122       2.43655076      -0.67468860
N        3.69514468      23.72159219       9.64241993       0.87377561      -0.46783768       0.73760904       0.03925150       0.46698890       0.05209027
C        2.56082411      23.88789389       8.69915836      -0.76235762      -0.00454903       1.11772335       0.28285046       0.96880645      -0.42196954
H        2.46047467      24.94226244       8.57943149      -0.38999721       1.03240848      -0.16854282       0.09499620       0.13481886       0.00146235
H        1.69902927      23.47954816       9.25120286      -0.03483156       0.05040531      -0.53123066      -0.15721402      -0.10253212       0.07544236
H        2.70746420      23.48193660       7.69669493       0.34090417      -0.56542847       0.18289104      -0.17598677      -0.17609569       0.21249002
C        3.67157339      22.51632877      10.51554024      -1.34532202      -1.15428422       0.07555037      -0.52146585      -0.30370159       0.02225268
H        4.68263262      22.19644036      10.69349429       0.58421027       0.03781394       0.42539685       0.10699776      -0.19687022       0.01737213
H        3.16031798      21.67370015      10.00882451       0.08343254       0.43684820      -0.04857855      -0.23402816      -0.16295677      -0.31488154
H        3.10568143      22.72585291      11.45764702       0.46776944      -0.04033156      -0.59016589       0.17137418       0.04892632       0.22925315
H        3.79511253      24.47207805      10.37312824      -0.16398368       0.33258468      -1.18788278      -0.13549014       0.15120181      -0.14067299
H        4.54614459      23.66164434       9.07276562       0.33628726       0.36527940      -0.02674150       0.19640729      -0.01788253       0.09338110
N       10.84839741       3.98790680       3.67784139       0.55692809      -1.76401904      -1.35661892       0.61495089      -0.21099691      -0.68143209
C        9.34067650       4.23200047       3.68134974       0.75607831       1.25621547      -0.37727324       0.43554957       0.85033598      -0.44976403
H        8.76893405       3.78197205       4.51082067       0.63241262       0.08771132       0.04768361       0.14308754       0.10679491       0.07582333
H        8.93586749       3.84829858       2.72458271       0.22628392       0.15547782       0.25487935       0.28218458       0.08935341       0.24375496
H        9.35921860       5.35039676       3.68867233      -0.95809981      -0.61377741       0.11159705      -0.07927875      -0.35168250      -0.36477130
C       11.14071474       2.45363290       3.50920606      -0.07306708       0.43903282       1.04780959       0.37022875       0.13671554       0.06453639