720
Lattice="26.50169014089926 0.10900523705057766 0.1259736743868023 0.18667652763447476 26.209974461114903 -0.06720230347410845 0.09590498805521724 -0.10285379256437581 26.215093622212382" Properties=species:S:1:pos:R:3:forces:R:3:momenta:R:3 energy=-3007.03466796875 stress="-9.597386815585197e-05 6.590623524971306e-05 -0.0003613003063946963 6.590623524971306e-05 -0.0006608813419006765 -0.00013621659309137613 -0.0003613003063946963 -0.00013621659309137613 0.00021178342285566032" pbc="T T T"
N       10.75666640       9.87168847       2.03541930      -0.72348450      -0.83718313      -0.45290249       0.62906562      -1.41599320       0.74912383
C       12.06099653       9.62241126       2.66384191      -0.46720960       0.48990324       0.45579613       0.13361924      -1.23617453       0.29052803
H       12.15883449       8.59574311       2.96570596      -0.18752069      -0.69878592       0.17708679       0.02790899      -0.12207077       0.09148381
H       12.22088134      10.28959648       3.50426939      -0.13414915       0.26366329       0.27911677      -0.04045205       0.10301147       0.10088678
H       12.71977933       9.84565845       1.87467430       1.51136959       0.19180318      -0.84112404      -0.01371858      -0.02050565      -0.15219133
C        9.59360141       9.83975744       2.90118244       0.14848244      -0.62016931       1.93516983       0.43669290      -0.00122761      -1.60749791
H        9.50627175       8.95661730       3.53872348       0.67040187      -0.21203653       0.05891693      -0.10766709      -0.15311059      -0.07818454
H        8.77815247       9.76645924       2.26506699      -1.92269454       0.27618685      -1.17369435       0.11557363      -0.15569950       0.00215297
H        9.53793090      10.71730229       3.52937222       0.07339838       0.47104314       0.18047357       0.08597487      -0.18364193      -0.14405352
H       10.58289655       9.13652902       1.29910325       0.34247508       0.25281900       0.05775953      -0.07773752      -0.01063262      -0.05820530
H       10.67113781      10.78776536       1.57861242       0.66637323       0.41041220      -0.45279407       0.05727068      -0.08688043       0.22506363
N        4.61081741      16.39649361      10.58246281      -0.68082170       0.34532966       1.06519960      -0.07202454      -0.29822505      -0.31454823
C        4.56693711      17.20446244       9.26719331       1.65357467      -1.46512880       0.83734001       1.06637727       0.72030515      -0.25849993
H        5.18470717      16.65963371       8.53864528      -0.09415845      -0.10410707       0.09234698      -0.05635460      -0.01812775      -0.01032901
H        5.06977862      18.15900434       9.42527265      -0.31330512       0.33112071       0.10620684       0.12686666       0.00733319       0.15409953
H        3.57444218      17.22621624       8.89583346      -1.24358166       0.29344473      -0.07378915      -0.20572057      -0.01325345      -0.10415835
C        3.60933365      15.28139106      10.72128226       1.24995829      -0.66464548      -1.12772126      -0.49307800      -0.88484252       0.23394998
H        3.60452887      14.78961379      11.70103103       0.11057631       0.52472837       0.26001659       0.05770555       0.15595521      -0.02954685
H        3.91162837      14.49380195      10.01047602      -0.12590634       0.16701358       0.01000581       0.11847473       0.03827097      -0.12191700
H        2.66381098      15.63895619      10.42836389      -1.42509337       0.60070961      -0.19736608      -0.05514469      -0.08372459       0.16684716
H        4.51823729      17.00765108      11.45138841      -0.22994903       0.05736515      -0.69093853       0.13530130       0.32491160       0.19971344
H        5.49240382      15.90908414      10.77136436       0.83910306       0.08691148      -0.52021086       0.08024063      -0.15376320       0.02255136
Cs       3.82047332       9.18257587       9.65317535      -0.20507897       0.09415297       0.09236987      -0.55802069       2.02827654      -1.78100566
Cs       9.86171115      16.77014818       3.33395874       0.13900002      -0.03201446      -0.06032858       1.34868162      -2.09081681       0.87200511
Pb       0.09343465      12.77608996       6.38718453       0.09582723       0.05183172       0.29167462      -0.32448210       0.34707838      -5.27050693
Pb       6.56435009      13.36991979       6.59124517      -0.14046627       0.21604655       0.01135664       2.45167885      -3.25756749       1.50227753
Pb       0.31690327      12.66292351       0.06336515       0.04651475       0.06705539      -0.11477936      -1.34442583       2.78862043       3.42527932
Pb       6.97188247      13.60800200       0.23819636       0.15120225      -0.36491667      -0.02223440       1.30058397      -1.86329973       2.03216773
I        3.37207055      12.75168138       6.64723737       0.15795754       0.09134951      -0.04009461      -0.16852419      -0.72963394       0.05552663
I       10.58495526      13.84190267       5.63074487      -0.06386866      -0.12705839       0.03883596      -0.59076409      -0.80831886      -3.12501190
I        6.36961186      10.45193072       7.03976858       0.08530074      -0.53211630      -0.02616718       0.24166209       1.56847071      -1.99057348
I        6.73124271      16.74398707       5.65383773       0.15135914       0.00150861       0.07191507       1.18368814       1.00334453       0.95859966
I       10.20137320      13.37578940       0.46175859      -0.24573322      -0.07552117       0.06077110       1.73114722      -0.09803035      -1.93353485
I        3.35563730      12.77481658      13.25853591      -0.02916589      -0.21146113       0.15107272       1.26441710      -1.57511506      -2.20384916
I        6.65881059      16.34664204      13.78913443       0.16651269      -0.36726582      -0.11764196      -0.75602792       3.83554428       1.00843187
I        6.95680081       9.64879156      -0.07228339      -0.15927282       0.50143504       0.05541072      -1.36470118       5.71008712       1.18158189
I       14.25655342      13.28447890       9.79113287      -0.29095337      -0.33767549      -0.21583521      -0.59666965      -2.87632212       2.03198957
I        0.06753098      11.90466027       3.40001367       0.02777630       0.20501209      -0.28161182       0.76877090       0.26809195       1.13100423
I        7.05593895      12.91937466       3.62280827      -0.13768424       0.03454148      -0.42551390       2.13484163       0.37168243       3.83162874
I        7.06395272      13.68903004       9.91422837       0.09084759      -0.08410585       0.00409282      -2.22696601      -0.29287912      -2.06511557
N        9.42806430      10.91818640      16.22679266       0.84630522       0.04321977      -0.88788061       0.91915834      -0.16428800       0.55046685
C       10.68047570      10.30592611      15.62175851       0.38425286      -1.07823282      -0.88197437       0.64232668       0.69869440      -1.02742335
H       11.49750045      11.03029985      15.43398022      -0.23387768       0.02101038       0.83884148       0.00883624       0.20075118      -0.36513483
H       10.46935597      10.02228806      14.56486373      -0.36216869      -0.34689312       0.59626341       0.11984631      -0.21374421       0.01512629
H       11.03728767       9.36127472      16.19615515      -0.66530967       1.69778185      -0.65684699       0.29709646      -0.10911282      -0.15234884
C        8.70108455       9.94760894      17.05608760      -1.25613703       1.16687799       1.35148544       0.24285954      -0.46068214      -1.09946874
H        9.41618296       9.69549798      17.84476631      -0.42221079      -0.09342924       0.41552609      -0.01741043       0.18994583      -0.10574852
H        8.37614769       9.04611116      16.58211988       0.16547057      -0.65860869      -1.04671970       0.04213922       0.03151831       0.15790098
H        7.72606306      10.44724327      17.38544481       1.36295216      -0.49685024       0.11840559      -0.37724379       0.11878528      -0.14598596
H        8.77776347      11.31541481      15.50751781       0.43073330      -0.15695422       0.13416659       0.02847402       0.05095889       0.06630035
H        9.72930221      11.72507085      16.84354395      -0.24029223      -0.22343412      -0.07543653       0.27912041      -0.34386193       0.03057810
N        2.92448088      17.07305929      23.37383467      -1.54841282      -0.19341808       1.63422384      -0.01506504      -0.03318714      -0.08131211
C        4.26122366      17.67221956      23.76805592      -1.53440082      -0.07942625      -1.29554681      -0.61695026       0.14256121       0.07762571
H        3.96423456      18.42559758      24.47981867       0.52082213       0.35969785       0.72125036       0.29044255       0.16186677       0.14402423
H        4.54946327      18.14467044      22.83454941       0.76398820       0.25704178      -0.18072513      -0.08178883       0.34232473       0.10405092
H        4.97286705      16.91249215      24.09355762      -0.09481218      -0.12438683       0.15412631      -0.02231576      -0.07617737      -0.11449133
C        2.95545005      16.09089485      22.27149508      -1.12792767      -0.99464890       0.25237357      -0.04788065      -0.79404285      -0.46518514
H        3.71536532      16.41485310      21.61320635       0.78302157       0.47158602      -1.18342063      -0.08548989       0.13150976      -0.11820824
H        1.96612634      15.91799233      21.73407354       0.91111327       0.60351303       0.65450634       0.08882798      -0.00653223       0.14868364
H        3.26331734      15.10485063      22.64425361       0.07480943       0.05101902       0.29779388      -0.31427685       0.24796049       0.39264046
H        2.15712489      17.84075588      23.23748129       0.96307717      -0.39047628      -0.42911919      -0.05010856      -0.38546756      -0.06827384
H        2.49454399      16.64158114      24.25023850       0.31776541      -0.10721668      -0.53824432      -0.17600265      -0.09570825       0.27859189
Cs       4.18350910       9.79733846      23.34865150      -0.11542880      -0.14821084      -0.14271226      -0.73316904      -1.45734425      -2.41756011
N       10.96082178      16.65586304      14.77345239      -0.14432971       0.36366939      -0.55426643      -0.35702721      -0.02542123       1.12951463
C       10.54433326      18.04518004      14.49143910      -1.38221564       0.09925055       1.22587366       0.01716035       0.39394908      -0.18608705
H       10.57766337      18.20883634      13.45102337       0.96299039       0.59759500      -1.44675924      -0.11149895       0.02725113       0.09307225
H       11.07148242      18.75961058      15.16427297      -0.10369347      -0.45148589      -0.65904320       0.05489517       0.03923583       0.03279653
H        9.44177693      18.14165325      14.62639005       0.47260106      -0.19304069       0.63505771       0.07362221       0.11782005      -0.21237407
C       10.72694725      16.36300429      16.19343102      -0.14086741      -1.00559898       0.48842874      -0.85941066       0.46707911      -0.24889001
H        9.64904713      16.21193233      16.42927841       0.36963463       0.38522195      -0.36359839      -0.39957103       0.01035960       0.06014239
H       11.14384331      17.20015618      16.74552211       0.12190992       0.00991991       0.45664825       0.18335895       0.04332268      -0.36232795
H       11.21106598      15.40352547      16.42179067       0.16128914       0.19770306       0.19367102      -0.25774897       0.05270760       0.21855268
H       11.96621745      16.51056738      14.47287227      -0.39868383      -0.00342134       0.14409891       0.28553570       0.22643077      -0.00173714
H       10.40516675      16.02374650      14.16981073       0.11083502      -0.21441583       0.03213364       0.08088042       0.15774828      -0.27495171
Pb       0.34783904      12.87525417      19.92290221       0.16507208       0.20697891       0.01047834      -0.68812951       1.31789485       0.64656866
Pb       6.99306745      13.32480956      19.85670165      -0.03443731       0.08143179      -0.08292299      -1.99998447       0.09925168       1.74627885
Pb       0.15202299      12.79669434      13.54619734       0.14394039       0.16076347      -0.42498543      -0.43066021      -1.67359815      -1.54016415
Pb       7.04173167      13.16872163      13.06352146      -0.19286094      -0.14030975       0.21972825       0.71531611      -1.48173426      -0.45874222
I        3.52678182      13.33896820      19.44353172      -0.03743414       0.00399864       0.27423843       0.78859692      -1.12417784       0.77630993
I       10.05879651      13.21795809      18.87755580      -0.01454488       0.02728933       0.18072318      -1.30377053       0.47948770       0.37160022
I        7.05239274       9.90082637      20.61909285      -0.05785028      -0.13289953      -0.15197186       3.21117956       0.00347344      -0.43549880
I        7.38761942      16.52831602      19.92749268      -0.12291479      -0.16238048       0.00059620      -0.92594727       1.16230561       0.71415618
I       10.22643187      13.26876170      13.06490787       0.06429015       0.19194162       0.16074779      -2.30054587      -2.02205476       3.17834519
I        3.69503551      12.04361658      26.25072280      -0.13835686       0.13727241       0.19800669       2.14491462       1.27735939      -0.12931717
I        7.34600352      16.51737287      26.79134298      -0.08077696      -0.04742415      -0.09295708       3.29081150       0.94160839       1.02946247
I        6.82137690       9.85849848      13.19274402      -0.11628558       0.01554176       0.11713300       2.95578254       0.39319618      -0.47877287
I       13.46397967      12.94468785      22.78036444      -0.05475766      -0.05705081      -0.47459858      -0.85560068      -1.32411920      -1.55124687
I        0.51697477      13.49328161      16.54299569      -0.12113436      -0.10890782       0.19782388      -0.09285583      -0.44868001      -2.09737984
I        6.50618158      13.28214422      16.44428793       0.18073594       0.11546832       0.04409557       0.51407438       0.19657807       1.16966114
I        6.46190491      12.75964571      23.15761456       0.15020097       0.35658061       0.06707647      -1.14030838      -3.28357210       0.33793765
N       17.13239001      17.33797210       2.81730981      -1.09212394      -2.77792971      -0.91926423      -0.14448965      -0.30156089      -0.85301826
C       17.67993251      16.35162066       3.79034455       0.71018118       1.12549081       1.65102709      -0.26261355      -0.06197062       0.79684333
H       18.81105417      16.42715385       3.94727502      -1.41041770      -0.08667902      -0.48085509      -0.05525837      -0.15116724      -0.08953697
H       17.34915103      15.37266667       3.51579904       0.07386291      -0.87621726      -0.54221550      -0.22671777       0.25102578      -0.16552087
H       17.17323710      16.56924154       4.75610572       0.35780297      -0.03241779      -0.18624918       0.08674323      -0.18860921      -0.00450955
C       15.62295111      17.07124375       2.54091379       1.05767964       2.14940829      -0.21329227      -0.50110301      -0.06656215       0.27478414
H       15.33041461      17.77230879       1.68329219       0.12591293      -1.12360612       1.07806941      -0.06055242       0.20182590      -0.00121162
H       15.01098259      17.20406499       3.44241455       0.27012712       0.32298433      -0.02092165       0.26906606       0.10383216       0.42167593
H       15.66617550      16.04186327       2.33202670      -0.57687699      -1.47754231      -0.86970606       0.07335926      -0.20103716       0.00868591
H       17.57719396      17.13325848       1.91191490       0.31478195       0.40068525      -0.15097684      -0.05292911      -0.05013037      -0.10896751
H       17.31882229      18.25967317       3.08652590       0.35362184       2.25864678       0.60147486       0.20808529       0.06583720       0.10179543
Cs       9.21087667      23.30222418       9.86565827      -0.02446192      -0.09369072      -0.03917454      -3.26179584       1.90586313      -1.57458877
N        9.07900114      16.51424530       9.43250399       1.08729045      -1.51099011       1.34314444       0.23917672      -0.46015233      -0.81687504
C        9.57552244      17.05979052      10.75810293      -0.59805116      -0.06347355      -1.16379490       0.34991679       0.36929553       0.26738748
H       10.25024019      16.32065883      11.13928889       0.28655065      -0.61593310       0.70383664      -0.02957192       0.11600809       0.11752171
H        8.75448628      17.35417132      11.39560932      -0.30875653      -0.13154775       0.40319097      -0.09206498       0.12208091       0.18287456
H       10.17276715      17.90095439      10.49713720       0.47961942       1.09977762       0.05626086       0.17383784       0.11129880       0.07483452
C       10.23273024      16.56697605       8.50157116       1.79882128       0.87447222       0.61629099      -0.12019312       0.08820211       0.43395168
H       10.66200983      17.65289110       8.45152349      -0.77517485      -1.68567455       0.03688836       0.14339520      -0.07361458       0.19009169
H       10.01803395      16.20382049       7.50634169      -0.42133626      -0.13451641      -0.45904618       0.04110434       0.30573986      -0.13921175
H       11.03679987      15.88892735       8.93882067      -0.71058150       0.77686366      -0.45754845      -0.13539822       0.24039293       0.14214213
H        8.26617698      17.06236426       9.10821512      -0.30845199      -0.02511900      -0.13737583      -0.09159762      -0.09698849       0.15281210
H        8.85345808      15.47016457       9.67325726      -0.58304352       1.33510851      -0.89573083       0.04969919      -0.21110986       0.05732711
Cs      16.62992830      23.54518256       3.27940726      -0.03405438      -0.04401893       0.01045876      -0.15815961      -2.04658731      -0.08253500
Pb       6.83122153      20.00356705       6.19695573      -0.03663800      -0.05814328      -0.00681210      -1.11521466      -0.66071727      -0.51940773
Pb      13.31586081      20.00201495       6.76153422       0.92874934      -0.16713233      -0.21394339      -4.88525934       1.31753890      -5.74439493
Pb       6.36437982      19.86183052       0.07894249       0.39735633       0.09043229       0.00695275       4.67045092      -0.36878381       0.45103357
Pb      13.42124522      20.09652508      -0.05613375      -0.10600210      -0.22910278      -0.03125321      -0.28180854      -0.07855390      -0.09273461
I       10.55385243      20.47774072       6.57201280      -0.94947559       0.04870372       0.10156048      -1.81738225      -0.72076079      -3.80424044
I       17.08674242      19.44033462       6.37182188      -0.20006301      -0.07971958       0.04029950      -1.83120795       2.61183603       1.56191557
I       13.65668299      16.73016777       6.55727972       0.04837015      -0.21246939      -0.15491501       0.39989380      -1.96797888       1.37762863
I       14.35347625      22.89725504       6.80301474       0.10967110       0.34646218      -0.03950799      -1.49849485       2.33274576      -2.29790490
I       16.86001395      19.76617467      -0.17949019      -0.04185078      -0.12583796      -0.15539469      -1.76567337       0.21150718      -0.18270517
I       10.70819002      20.68324329      12.19255472       0.26142634       0.18092618      -0.02353791       2.47100860      -3.29927383       5.38252074
I       14.35877482      23.22037236      12.89805541      -0.04370716      -0.14461120      -0.09238926       1.15751418      -1.54011140      -2.33610051
I       12.77544200      16.69431347      -0.21261045       0.13873175      -0.02549491       0.08656751      -0.43570426      -0.17658677      -1.87925159
I       20.02383004      19.85321898       9.65330879       0.00874464       0.11575384      -0.05478636       0.23187107       0.31834150      -0.79537250
I        7.62804532      19.94020635       3.10964400      -0.06370357      -0.01454982      -0.14978638       0.67026500      -2.93403416      -0.61979248
I       13.63220924      20.05646841       3.08409065      -0.04691237       0.01566717       0.06693548      -0.81745326      -2.65860346      -2.30244693
I       14.20480704      19.65101979       9.67176172      -0.03047867       0.10583742       0.15105545       1.15063418      -1.43817729       1.96904758
N       17.65607163      17.01354331      16.38343088      -0.65973392       0.27857589       0.97778081       0.20344570       0.62702594       0.33047779
C       16.29176658      16.71277434      16.91739756      -0.16447329      -1.68607606      -1.79700355      -0.67299246      -0.43426582       0.29137779
H       16.19860023      15.60646517      16.97284432       0.01223434       0.33323611      -0.31942912      -0.17657964      -0.23656104      -0.07254073
H       15.54023324      17.09425131      16.18750647       0.37712083       0.08470753       0.73673222      -0.06917441       0.03958535      -0.10972851
H       16.21880784      17.01189919      17.93085746      -0.27257662       0.98500423       1.00647873      -0.29777456       0.00333977      -0.17816269
C       17.86625254      16.61502427      14.97219991      -0.34915207      -0.21008372       0.59061850       0.42944349       0.59691924       0.97031612
H       17.60866617      15.55657248      14.89178379      -0.58681930      -0.03354543      -0.19551232       0.15446847      -0.12795503      -0.08935106
H       18.91722844      16.62957208      14.72420519       0.50907688       0.53641505      -0.21068961       0.31269099      -0.04977207       0.04067538
H       17.24191867      17.30833627      14.38903078       0.18409591      -0.42881255      -0.32958184      -0.05537883       0.08793231      -0.00801031
H       18.33661758      16.59213900      17.04729568       0.28966667       0.05054122      -0.24201023       0.01520688       0.13111685       0.00316501
H       17.77532512      18.05162789      16.50399461       0.45177433      -0.19914150      -0.16318004      -0.02037838       0.01638055      -0.09320061
Cs      10.24122190      23.04216539      23.26519730       0.01789473      -0.08026192      -0.07600377      -1.42383311      -1.13511286       0.58932307
N       10.13725863      16.37325450      22.32252776       0.00358859       0.43579465       1.60104499      -0.50396640       0.80663476       0.95235539
C       10.20432069      17.65008847      23.14314318       0.75810250      -0.38244295      -0.53842329       1.03049252      -0.15639943      -0.12353714
H        9.41576567      17.71191429      23.89319628      -0.41182104      -0.56764254       0.00920297      -0.10700296      -0.07032253       0.10183486
H       10.05212828      18.49858478      22.48247412       0.39482163       0.24640175      -0.16308594       0.03201271      -0.11960489      -0.26045768
H       11.14493947      17.59654786      23.69051678       0.23175127       0.39848077      -0.14672669      -0.03117868      -0.06539656      -0.16700994
C       10.21149091      15.22297232      23.26233585       1.26357558       0.25969951       0.81159809      -0.49047325       0.49271894       0.04582362
H       10.43230400      14.32925467      22.70004798      -0.30873706      -0.57901195      -0.29708293      -0.21238007      -0.00178393       0.23674301
H        9.29136738      15.17155734      23.86827012       0.20454135      -0.07267248      -0.21679989       0.11163577      -0.16575086      -0.05355265
H       11.12906468      15.36846888      23.94571532      -1.23130339       0.01344748      -0.74668133       0.10692935      -0.25232873       0.11421076
H       10.79922349      16.23881765      21.53778607       0.24755392       0.52409602       0.26886695      -0.04880605      -0.00510508      -0.21978033
H        9.22775910      16.45546728      21.89600791      -1.19783922      -0.43582238      -0.85761619      -0.07028910      -0.19886626      -0.00126478
N       16.72376284      23.91811113      16.66161122      -0.68074905      -0.75553078       0.03181093      -0.71637695       0.25169559      -0.45587511
C       16.99279578      24.98782802      15.72079216      -0.62135139      -1.22154838      -2.44244756      -0.39078135      -0.04826991      -0.86110099
H       16.11557299      25.17133299      15.03565645       0.55132169      -0.61258220       0.43877273      -0.04229502      -0.35936180      -0.05604521
H       17.87879764      24.67984352      15.11348812      -0.51119489       0.32714187       0.44105878      -0.21774725      -0.03604408       0.22345146
H       17.12490250      25.89147598      16.22215069       0.62588882       1.56339097       1.15464359      -0.11627453      -0.22227881      -0.17179267
C       16.80420452      22.50204847      16.12114742       2.13612461       0.52870496       3.37352026      -0.17222364       0.26544444       1.00939042
H       17.86950998      22.26597124      16.02471447      -0.01967366      -0.03666195      -0.24959952      -0.29202638      -0.11841354       0.02858814
H       16.32957129      22.48857196      15.22029518      -1.61095057      -0.26257691      -2.43929349      -0.02942457       0.34224075       0.19671901
H       16.40108931      21.87953183      16.94089886      -0.12282809      -0.07519192      -0.64531203       0.03282954       0.14545918      -0.07307901
H       15.79123874      23.96425444      17.13934709       0.00599539       0.44121481      -0.10802942       0.29588125       0.09242032       0.11627806
H       17.37174385      24.05323281      17.42657100       0.49614323      -0.26047205       0.69966519      -0.07862117       0.19817611       0.00557978
Pb       7.07339966      20.22945656      19.70093477       0.07493274      -0.07855496      -0.08064274       0.00426122       1.52694961      -0.04500151
Pb      13.91466630      19.69027115      19.67432921      -0.20593485       0.24399295       0.00609250       1.54059913      -4.61996187      -2.81445859
Pb       6.19719624      19.41966197      13.26281732       0.40897079      -0.13899797       0.02718530       0.26443552       0.23637797      -3.90241974
Pb      13.78925389      20.02586605      13.17119181      -0.12364815       0.03707469      -0.35000907       0.87708420      -5.35391857       0.69533283
I       10.21810112      20.19033354      19.92317856       0.15983046       0.14968013      -0.16104585       0.14228517      -0.23740969      -2.52520542
I       16.94774636      19.65324826      19.84865421       0.09401518      -0.02239428       0.06104445      -0.38707161       0.88500067      -1.97349589
I       13.36491198      16.65656669      19.66650181      -0.20467839      -0.22754008      -0.03774053       1.44921203       0.52828830      -0.04689937
I       14.48389337      23.00110258      19.15025965      -0.18564109       0.15241524       0.18038396      -0.30957115      -1.20530107       1.13872091
I       17.14243855      19.59835422      12.19231205      -0.36363167      -0.04882365       0.13921496       1.93315863       1.59779595      -1.34731029
I       10.26259226      20.08527212      25.85049328       0.10965638       0.21227220       0.22431954       0.73563946      -0.69282060       1.08968761
I       14.52131191      22.93548189      26.27161751      -0.00364095       0.26351971      -0.05719738      -0.04036534      -0.19026014       0.29139605
I       13.45434432      16.58742799      12.22548582       0.06464248      -0.03474680       0.29306740       0.76702281      -0.89819786       0.61713862
I       20.77293888      19.58065112      22.43483094      -0.09523068       0.08870692       0.32760782       1.26676870       2.23104154       1.43903190
I        6.56794935      19.18774418      16.31540056      -0.06549817       0.18898967       0.09726762      -0.46241985      -0.35310692      -0.86878357
I       13.88419431      20.00628850      16.31894424      -0.11115764      -0.16091835      -0.10504375       2.21671114      -3.96420545      -0.40615989
I       13.62164374      20.29851824      22.81543899       0.01308797       0.13295457       0.01997510       1.41792301      -2.25566935      -0.39062611
N       10.05194897      22.97769304       4.12365417       0.37211455       0.57604499      -1.38275182       0.05381088      -0.04480707       0.30565674
C        9.10547020      23.37086932       2.98260145       2.26237707       0.77074287      -0.01513660       0.01564956      -0.71302794       0.11712292
H        9.43384652      24.33265078       2.53165602       0.07332245      -0.27958330       0.57287502      -0.16688087      -0.07389879      -0.08795637
H        8.16738944      23.51176947       3.43635577      -1.60158395      -0.12539038       0.29582865       0.00889905      -0.29288150       0.34879996
H        9.18817410      22.66142990       2.15877252      -0.22287471      -0.49447094       0.19924026       0.08069552       0.25321160       0.07954072
C       11.54860485      23.12234105       3.77375370      -1.20879102       0.40055304       0.78679051      -0.07805620       1.01389219      -0.17527336
H       11.81041697      22.65163237       2.83643792      -0.33979795      -0.08167988      -0.51549508       0.22070003       0.05381207       0.00639444
H       12.09438362      22.63337464       4.55513283       0.40589995      -0.37469714       0.61045945      -0.17964008      -0.17141690      -0.09927287
H       11.78535300      24.18734954       3.81228306      -0.04245208       0.10950697      -0.31587445      -0.04655600      -0.34731360       0.02324149