640
Lattice="26.12586167751675 0.003785826851188405 0.06747106271157435 0.04748427577033322 26.07303466066211 0.09376741172358055 0.05999987742447166 0.11238044426054336 26.11064847127861" Properties=species:S:1:pos:R:3:forces:R:3:momenta:R:3 energy=-2584.86962890625 stress="0.00016155725461430848 -2.083863000734709e-05 8.657711441628635e-05 -2.083863000734709e-05 -2.9457865821314044e-05 0.0006444780738092959 8.657711441628635e-05 0.0006444780738092959 0.0007745923358015715" pbc="T T T"
N        9.49513590       9.43902935       4.27252448       0.65125500      -0.67592542       1.63769322      -0.01285555      -0.02151097      -0.00396180
C       10.26849345      10.58014779       4.89667094       0.58133641      -0.73860454      -0.04558921       0.68721352      -0.99751374       0.44131623
H       11.19492969      10.79026883       4.26261295      -1.35206185       0.17934348       0.41907689      -0.01468345      -0.00981508       0.06640886
H       10.66189340      10.26512099       5.88145651      -0.36556569       0.00432704      -0.20396990       0.10606081      -0.35648937      -0.00629443
H        9.49895940      11.36879164       5.03487253       0.84323668       0.20219908      -0.28464003       0.08234532      -0.04823814       0.03402502
C        9.21279785       9.76048332       2.85379515      -0.95157501       0.02254207       0.98678547       0.39445329       0.35668553       0.55014519
H       10.17709193       9.82175162       2.42846046       1.16003731       0.43641556      -1.05404686      -0.14753381      -0.22217748       0.03998205
H        8.67766332      10.72299603       2.85927711       0.06664227      -0.22154939      -0.32951777       0.03520162      -0.04162613       0.33436307
H        8.67229726       8.95920921       2.37469848      -0.45545386      -0.27952908      -0.15065318      -0.00625256       0.38647617      -0.30564060
H        8.69789048       9.25455842       4.92915684      -0.54670787       0.41704254      -0.62538229      -0.09937178       0.22436820      -0.01475214
H        9.99218321       8.52182010       4.40554361       0.28740389       0.53596928      -0.51038291       0.11657769       0.22950440       0.06251145
N        4.26869360      17.91878194       9.39201020      -0.19444206      -0.68283890       1.44042303       0.34306444       0.51690613       0.52666949
C        2.85564262      17.96493838       8.93011898      -1.35805707      -0.69781000      -0.52840713      -0.51173538      -0.41880563       0.01141935
H        2.74498186      17.13224498       8.15903257       0.04293896       0.96130283       0.73696367       0.03685810       0.25628703      -0.04982306
H        2.57464827      18.93008430       8.48205713       0.29836922      -0.16046438      -0.12161670       0.07086417      -0.06463226      -0.21760923
H        2.06932447      17.76146156       9.72357691       1.18866655       0.09570779      -0.30890612       0.20349936      -0.11748889       0.21546869
C        4.51354096      16.47133356       9.91193464       2.48507224       1.13787482      -0.31674299      -0.02867096      -0.40895266      -0.91915765
H        5.52197009      16.44884412      10.47534936      -1.19864608      -0.08029854      -1.11546722      -0.02053861       0.04013360       0.15819451
H        4.43994401      15.75772179       9.07008900       0.32443273       0.37194473       0.08672497      -0.10893364       0.21957544       0.16528579
H        3.79387338      16.16232791      10.62196357      -1.30593465       0.16539779       0.91306413      -0.10338836      -0.10502338       0.09329912
H        4.55922972      18.65297246      10.13296418      -0.65750021      -0.91361832      -0.74759853      -0.16869100      -0.21483117       0.15274698
H        4.88367714      18.12459303       8.58449328       0.27610352      -0.25296715       0.02851000       0.03564326      -0.33452956      -0.04288896
Cs       3.30268845      10.92042778       9.30374143       0.01646746      -0.24629725       0.22308406      -1.67680780      -1.11236718      -1.53809230
N        8.76842760      16.88869963       3.39444379       0.43630062      -1.33128416       0.21694826       0.07158884       0.60949207       0.45001755
C       10.06187713      17.19482850       4.00308769       0.46758060       0.22554348       1.10076263      -0.35188846       0.39980930      -0.41043552
H       10.57047698      17.91631408       3.36446911       0.14550089       0.03851186      -0.05758640       0.09395402      -0.30985677      -0.04633448
H       10.66317753      16.29651163       4.14469788       0.13909897      -0.29488039      -0.34394160       0.07996387      -0.20592180      -0.07857823
H        9.95406074      17.62320125       5.01721743      -0.23296795       0.02116846      -0.33396057       0.06390287       0.06524550      -0.14674921
C        8.97511686      16.70276468       1.92284273       0.70422743      -1.01521722       0.00475192      -0.51414066       0.00464076       0.02677349
H        9.26574534      17.68760881       1.56134970      -0.44166096       0.31426044      -0.45870788       0.12956888      -0.19523863       0.15007700
H        8.13047037      16.20478518       1.40535047       0.06748131       0.54203194       0.30028034      -0.03920360       0.15752296      -0.06291930
H        9.88683234      16.08314085       1.69207856      -0.66405235       0.10128201       0.70260471       0.10155748       0.08073572      -0.10719139
H        8.20206621      17.71448494       3.54278474      -0.96109383       1.35394146      -0.16626593       0.10507383       0.15570454      -0.22991827
H        8.22568984      16.15216631       3.95252502       0.60776259      -0.17626124      -0.93477751       0.07684212       0.16349117      -0.04494700
Pb       0.08233535      13.11619818       6.42069193       0.12564003       0.32649461       0.09085330      -3.19319330       0.49303870      -2.09515346
Pb       6.82156879      13.24433504       6.58088973      -0.03124884      -0.09301223       0.38821144       1.59315893      -1.31357152      -5.90825705
Pb      -0.05348609      13.04546543      -0.21850193      -0.12849067      -0.08108664       0.15685355       0.29301169       0.48520440       0.78388607
Pb       6.57501851      13.33120001      -0.28561411       0.03201768       0.11249581      -0.08006151      -2.85671855      -0.12740131       0.29884251
I        3.64445189      13.33087673       6.61553808      -0.01340433       0.16288476      -0.16964239      -2.68987402      -1.40959959       1.45939022
I       10.34321902      13.30743684       7.39312228      -0.13033375       0.06792360      -0.00904134       2.50238909       2.66538141      -1.46432205
I        6.57716106      10.00910749       6.55047584      -0.03162041       0.09414044      -0.13434120       3.13674222      -1.12732196       0.18467500
I        7.23926212      16.83128794       7.44376506       0.12230060       0.12634077      -0.19885936      -0.74814933       0.81915820       0.85784681
I        9.73389282      13.47139963      -0.40260715      -0.20704564      -0.16910266       0.15055513      -0.86398209      -2.37366227      -2.60019103
I        3.36434985      13.81773411      12.81341462      -0.03332660      -0.01420426       0.01237740      -0.30310191      -2.19552506      -1.58520552
I        7.73063646      16.29056113      13.14575620      -0.04090634       0.13676839      -0.10485107       4.71028841      -1.17445397       0.95047074
I        5.80216735      10.18475977       0.80619188       0.18085224      -0.02089088      -0.27546617       0.84986137       2.98375215      -1.39326175
I       13.44165512      13.38609098      10.31671773      -0.09305478      -0.03769309      -0.19054969      -1.11857260       0.00213946      -4.03436877
I        0.23636928      12.52553847       3.18327416      -0.15219039       0.10014613      -0.10019718      -2.10312964       0.88373131       0.82972809
I        7.05265721      13.85777858       3.72642047      -0.09058808       0.04347260      -0.51722579       1.73519299       2.15989418      -3.02341870
I        6.96325182      13.53340391       9.83030088      -0.01258141      -0.12687092       0.28219872      -0.62569274      -1.59362070       2.40326077
N       10.43388511       9.37372187      15.41607376       0.31032937       1.61045538      -1.81321277      -0.04095437      -0.38019941       0.15448383
C        9.03157334       9.84957470      15.20125280      -0.52907664      -0.21203610      -0.29757222      -0.48449480       0.07193384      -1.09405459
H        8.93956287      10.17114966      14.14016608      -0.06523035      -0.07332715       0.50657456       0.00063504       0.04947750       0.14265101
H        8.79710100      10.68039732      15.88089926       0.19588530       0.01012313      -0.01209810      -0.25358513      -0.08861720      -0.42343714
H        8.31371113       9.04142192      15.37599980       0.15417685      -0.21651779       0.09599704      -0.21327777      -0.16269788      -0.11947670
C       10.80773963       9.14757674      16.79004553      -2.36161390      -0.43798459       1.10937363       0.54535305      -0.18922212      -0.76599450
H       11.76203278       8.73938862      16.97312996       1.58393141      -0.06725317      -0.11242179      -0.22251302      -0.22571219       0.03855251
H       10.12121300       8.37294602      17.15548113      -0.14334827      -0.05888400       0.18186223       0.17533593      -0.09277515      -0.34826226
H       10.53254299      10.05371839      17.32793937       0.47856870       0.24461449       0.37827724       0.17785397      -0.04574257      -0.00881935
H       10.99775419      10.17319057      15.00018456       0.05005234      -0.86642709       0.19693866       0.05517802       0.04686204       0.12496023
H       10.58832658       8.55305379      14.80515670       0.10345234      -0.24374873      -0.09565834      -0.04531693       0.05390586       0.14306892
Cs       3.45876848      16.54203125      22.83747356       0.08372612      -0.04810386      -0.05477117       2.03772407      -0.27954837      -3.02712244
N        4.09781193       9.60336525      23.48507067      -0.59511720      -1.71497474      -0.32917734      -0.10358988       0.32581975       0.33474040
C        2.79331548       9.16771093      24.15722854       1.26475972      -1.63432249      -1.21000638      -1.09972296       0.29076928       0.37333920
H        3.11260030       8.41951502      24.93486802      -0.59319913       0.57125220      -0.50589235      -0.10226296       0.20736956      -0.06875888
H        2.20802995       8.69079113      23.33195447       0.32983382      -0.00874615       0.65097417      -0.16253227      -0.03649378      -0.19919238
H        2.19682019       9.95871818      24.53872537      -0.19357805       1.19714136       0.49802073       0.11993493      -0.00474355       0.12167479
C        3.90727897      10.35981115      22.22026628      -1.00780261       0.25876385       0.56806829       0.03358075      -0.40351294      -0.13566137
H        4.87565570      10.61101735      21.76666597      -0.28302354       0.36425006       0.19157263       0.25646317      -0.02338096       0.09684431
H        3.17557647      11.16380353      22.47853571       0.89280634       0.02567449      -0.42832522      -0.13038304       0.01442786       0.17810887
H        3.36812348       9.69860440      21.54016924      -0.04109187      -0.20844668      -0.18420105      -0.20966603       0.02567455      -0.08900229
H        4.56697942       8.66591258      23.19607042      -0.15556901       0.58983243       0.31260006      -0.29473940       0.28094239       0.40486307
H        4.72853629      10.01289078      24.17275396       0.27807937       0.63504564       0.31928658      -0.02971440       0.33340779      -0.11523194
Cs       9.62514295      16.85288184      16.74866547      -0.05515319       0.00358033       0.00127068       0.98314798       0.02813646       0.06221288
Pb      -0.07577718      13.55725816      19.73403050       0.19899652      -0.14240683      -0.30258351       0.01931921      -0.08218989       2.19269186
Pb       6.55812619      13.45651822      19.59207501       0.03540601      -0.00855626      -0.04867926      -0.57761282      -3.81647241       3.59595760
Pb       0.20209164      13.31359152      13.21358674      -0.09804703      -0.03997466      -0.05475282      -3.11733303       1.06637440      -2.36732607
Pb       6.58204458      13.40169316      13.17700364       0.19070873      -0.04740356      -0.16066005       3.63851655       1.81324346       2.32372100
I        3.07946230      14.30285141      19.44278418       0.06993037      -0.18772006       0.11610874       0.08247534       2.99408901       0.58027564
I        9.76678651      13.82288571      20.38963404      -0.31902502      -0.13344062      -0.07420389      -0.02762362       0.17390995       0.95680428
I        6.56766757      10.17981784      19.02567950       0.03917940       0.08358354       0.12219806       1.20554659      -0.31568491      -0.11721988
I        6.68086441      16.82451688      19.69130673       0.11308232      -0.18831975       0.06381516      -1.41313876      -5.33775124       1.09290962
I       10.10812380      12.91092060      13.93298276      -0.03982223       0.07524843      -0.28399301      -5.17966419      -1.38387165       0.83462448
I        2.93965826      13.31667342      26.08732534       0.72570916      -0.00068373      -0.01240110      -1.17229140      -0.80468257       0.59713130
I        6.79487184      16.69140824      25.10154890      -0.21827516      -0.17622616      -0.05127529      -0.07160659       0.38810011       1.18220044
I        5.75421587       9.68457269      12.84119470      -0.06501674       0.09414145       0.08760882      -0.42914119       0.96833211       3.25411637
I       13.15576877      13.22432372      23.44469655       0.09288085       0.11704882      -0.34073019       1.07551106       1.20838466       0.65197082
I       -0.15773980      13.05852427      16.32085801      -0.02724723       0.11892306      -0.02142662       0.72018337      -1.09007967      -1.47476863
I        7.15840669      13.41065704      16.27841977      -0.02336916       0.02506811       0.22385417      -0.40829388      -1.40027217      -3.77657772
I        6.03253779      13.15708472      22.69696454       0.09458755       0.20320834       0.25672951      -0.99521757       1.12486292       0.46902977
N       16.65145683      16.93500262       2.84419849       1.42069865       1.36130616      -0.38172464       0.60921760       0.27405103      -0.59110570
C       17.91198319      16.75494704       3.70058490      -1.17031873       0.70155006      -0.17485937       0.49723099       0.48566304      -0.16698164
H       17.66118312      17.20036114       4.65338265      -0.11060416       0.81833830       0.33534530       0.11020985       0.01886968      -0.29868172
H       18.75336423      17.31955808       3.24606777      -0.18625474      -0.89861001       0.10816329       0.08921398      -0.01721035      -0.11696359
H       17.98200464      15.73162299       4.01743761       0.55718622      -0.97603395      -0.65299520      -0.05014254       0.01838076       0.15204617
C       15.41302512      16.66973908       3.62207592       0.84726418      -0.53358548       1.42224954      -0.29440463      -0.49570829       0.15423568
H       15.25841313      17.58512113       4.27782761      -0.07929164      -0.99693232      -0.50491903      -0.08784113      -0.30162492       0.02496898
H       15.70547198      15.77755348       4.28564253      -0.83972975       1.05726903      -0.85811426       0.00981604       0.04592327       0.01196789
H       14.52940648      16.47019783       3.00111717       0.28106254       0.02119442       0.01655844       0.31216010      -0.04062884       0.00481230
H       16.73759466      16.47567423       1.91749213      -0.21869463      -0.62056493       0.36384084       0.17396916       0.20109458       0.11318464
H       16.71352130      17.94893332       2.52685575      -0.51749398      -0.41867020       0.19486379      -0.18813865      -0.19747469       0.21449394
Cs       9.78609591      23.10745139      10.22762987       0.19252932       0.16194815      -0.24194611      -0.57609745      -0.04009947       0.52616109
Cs      10.31894055      15.97118874      10.04574727      -0.06948052       0.11963909      -0.01215089       1.58791477       0.70084739       1.27741374
Cs      16.66010865      21.97721992       3.85159564       0.11743994       0.08045769      -0.00886270      -4.59409929      -0.08681376      -0.95662345
Pb       7.18996057      20.02537225       6.47821130      -0.08673733       0.03736835       0.21942537       1.48170814      -0.24590012      -1.42331643
Pb      13.79163659      19.87994885       6.90448320      -0.66533721       0.05274679      -0.43824291      -3.33352576       0.23925401       0.54736804
Pb       6.46564841      19.98519772      -0.04529706       0.06442057      -0.26478208      -0.15366326      -2.29336755      -1.91940716      -0.68616332
Pb      13.21871428      20.06973673       0.36799347       0.05019644      -0.28328210      -0.18328169      -1.61882372       3.55705300       4.15764725
I       10.12611664      20.65003916       7.10242128      -0.08769041      -0.08482644       0.05229788       0.62635122      -0.11073240      -0.25053333
I       16.67226353      19.46631659       7.00108813       0.64431365      -0.06329501       0.00466591      -1.59142620       1.50126232       0.05483058
I       12.97616324      16.64729228       6.24308918       0.02784726      -0.22476267       0.46510165      -0.77098911       1.31558782      -2.43520094
I       13.87010561      23.12080933       6.44022127       0.01604909      -0.05795085       0.00528783      -4.78903808      -3.80332050       0.03387080
I       16.51895707      19.85373264       0.61961212       0.03280064       0.00973480      -0.15177607      -3.54917820       1.71335864       1.29606764
I       10.14205976      20.63903242      12.65386728       0.09258922      -0.36740322       0.32624826      -1.78523669       1.49056355       0.15343156
I       13.84346999      22.89764734      12.86278007      -0.20922751       0.13086348       0.03131852       0.35800909       1.16414186       0.70037333
I       13.22821424      16.82197820      -0.26271841      -0.07754396      -0.04976071       0.05478097      -1.86684452       0.11477266      -2.40633786
I       20.52520867      19.60821124       9.64379489      -0.09119293       0.01155816       0.12184934      -1.82295644      -1.17022449      -0.59571559
I        7.08429713      19.76203762       3.35687213      -0.19975431       0.18791424      -0.20818367      -2.92113734      -0.18386548      -2.70928745
I       13.66888244      19.68977502       3.42908853      -0.22174940       0.31180912       0.00297184      -1.81181688      -0.61153716       1.56019375
I       13.08898242      19.67019676       9.72178009      -0.11100356      -0.00825377       0.60861476       3.90368739       0.33450530       0.57522934
N       16.99385998      16.20781464      15.94152070      -1.22313911       2.92048927      -0.85627804       0.07657153      -0.43007053       0.09745224
C       15.65992563      16.33357878      16.66285584       0.52893436       1.07545363      -1.07580477       0.70850106      -0.25725874      -1.02189727
H       14.95732289      16.77361549      15.88244592       0.32541652      -1.12202114       0.94738842      -0.00972946       0.03857126      -0.27904856
H       15.66751004      17.06950514      17.46591854       0.67712795       0.46795884       0.03292023       0.23205044      -0.05095860       0.01109940
H       15.49528153      15.43081464      17.19104961      -0.88733763      -1.39301840      -0.02388963       0.20482336       0.05879693      -0.04648181
C       17.49756674      17.61155081      15.75139725       0.21173336       0.56587529       1.16808349       0.26343657      -0.43629901       0.14080310
H       18.50382720      17.59712625      15.34563108       0.29163009      -0.13912688      -0.23133886      -0.25381921       0.02403020      -0.00162364
H       17.54575954      18.11250768      16.76109653      -0.10841430      -0.49413739      -0.80414968      -0.08236223      -0.09140227       0.10537329
H       16.85098251      18.21071814      15.06923180      -0.01613729      -0.60473754       0.40804885       0.22517892      -0.03555838       0.15356422
H       16.77208153      15.87374628      14.96945672       0.23342392      -0.49018378       0.30890135       0.32845575       0.03303998       0.22358717
H       17.75792467      15.62427231      16.30636250       0.01692054      -0.63638446       0.69579635       0.05532395       0.03606444      -0.17134853
Cs       9.70470091      23.17699250      23.30507338       0.06534309       0.04902116      -0.06078201      -3.64696280       0.45469133       1.25167891
Cs      10.20575749      16.27002972      23.20232797      -0.03723470       0.20110243       0.04766618      -0.01679143      -2.02574810       0.22706430
N       15.35921280      23.35110418      15.90935275      -0.10964584       0.93151990      -0.66436029       0.09785683      -0.28653777      -0.06780162
C       15.62005748      22.01224652      16.44988705       0.01619424      -1.06758417       0.42103245       0.22312544      -0.08316180      -0.13995478
H       16.07591440      21.39584990      15.62083559      -0.58729145       0.27877703       0.79647383      -0.15859580       0.00989341      -0.25312282
H       14.60792751      21.58614981      16.87096610       1.86575423       0.42786609      -0.73200264      -0.13853316       0.05565739       0.27213719
H       16.38720670      22.14724266      17.24243500      -0.49039168      -0.29352145      -0.13256448       0.13613629      -0.29461985       0.00850131
C       16.52727570      24.32283613      15.88244261       0.05582571      -0.69743478      -0.18625152       1.21480962       0.69013493       0.60925419
H       17.36891322      23.82199847      15.33485550      -0.46706597       0.37029727       0.62760862       0.02602305      -0.13425089      -0.27398853
H       16.75311586      24.66291847      16.89462281       0.28745219      -0.48266894       0.27031854       0.02832049      -0.06960400      -0.20385450
H       16.23659808      25.22940834      15.35734864      -0.25795129       0.09782746      -0.45840262       0.08770183      -0.07575584      -0.27204286
H       14.59815120      23.72624530      16.50340809       0.06479913       0.35788780      -0.54435649       0.11984143      -0.01994482      -0.20738884
H       15.03044146      23.25667858      14.87909674      -0.22822839       0.13412895       0.80313119      -0.01526031      -0.20639883      -0.29058641
Pb       6.42715825      19.96916341      19.61385023      -0.05999298      -0.07909594       0.16155946      -0.40570664       1.78054059      -1.94861415
Pb      13.12835992      19.74097091      20.12579855      -0.04813897       0.10587961      -0.42604721       0.60760156      -0.54357196      -0.10801677
Pb       7.09648036      20.13199175      13.14216347      -0.02337837      -0.12969842      -0.10407977       1.28501271       0.75159064       0.16397617
Pb      13.27462260      19.81192671      13.50419894      -0.07199710       0.02322025      -0.09065779       3.08218167      -2.33757228      -3.25511634
I        9.69948155      19.79727246      20.51247837      -0.06571621       0.03031106      -0.02974905      -2.20414634      -4.41805226       0.15830617
I       16.49894357      19.74338962      20.05588725      -0.12806793      -0.00403099      -0.08686146      -1.09276759      -0.94795788       0.70585253
I       13.08339852      16.65014640      20.76024208       0.09218984       0.03890666      -0.01964995       0.84023271      -0.73130647       4.15251119
I       12.59943758      23.15995908      19.84921688       0.08434974       0.00235740      -0.03266363      -1.48301896       0.30558721       1.49871534
I       16.53517953      19.49033199      12.89656542      -0.02328011       0.01267041      -0.15602834      -1.02991050       1.18476965       1.46258750
I        9.94946637      19.93048176      25.24732860      -0.12937816       0.04526759       0.13981021       1.71068059      -1.62781604      -2.37318751
I       13.19454868      23.11773489      25.59003091      -0.01598067       0.21449554       0.17533326       0.37623372      -0.15800382       0.82113480
I       12.27801112      16.65149945      13.33487485      -0.03266328       0.33522330      -0.07183685       1.69191698      -0.71462532      -2.59389761
I       19.37548686      19.56438919      22.99645460       0.00037693      -0.04669713       0.12435363      -0.14112204       1.14250753      -5.03566628
I        6.97733641      19.57266727      16.30973042       0.10657297       0.03153542       0.02147497       0.27702377       2.34319718       1.99196632
I       12.96166709      19.37983537      16.72026780      -0.05762507      -0.11476967      -0.23995434      -3.57281438      -1.08713366       2.22525618
I       13.33302504      20.10976147      22.99550005       0.20453913       0.09392861       0.42989435      -2.01981015      -1.24156077       2.07053372
N        9.06031958      23.18471066       3.29722483      -0.07196811       0.95243139      -1.19885038      -0.64603982       0.39289530      -1.68626082
C       10.10498358      22.19692038       3.56415888       1.61619516       0.39312618      -1.21286506       0.03877691       0.22182706       0.14784713
H       11.08287910      22.57373485       3.10465796      -1.14777896      -0.49946023       0.27989643       0.38931026       0.42308460      -0.29095256
H        9.78398275      21.25638341       3.08905329       0.29745738      -0.02496816       0.41658581       0.05202101       0.29951900       0.25051374
H       10.26952285      22.20001834       4.62889997       0.01866553      -0.66387890       0.61950736       0.09670996      -0.28219532       0.03622809
C        8.95560143      23.54872629       1.84018473      -0.09444102      -0.34272334      -0.40332550      -0.50639598      -0.70599429       0.06846994
H        9.93904404      23.85528757       1.42962015      -0.40263712       0.20553937       0.51254200       0.08038486       0.03117606       0.02568791
H        8.11318256      24.21755141       1.56730267       0.60601928       0.35434905       0.76187474       0.09636775      -0.22102790      -0.34908175
H        8.65428291      22.67002793       1.28033756       0.18018882      -0.78993855       0.09137607      -0.05412470       0.21467976      -0.06229153
H        9.28618400      24.02845623       3.84764753      -0.12417497       0.25643723       0.10501557       0.13065760       0.04427876       0.29709563
H        8.15868628      22.82296061       3.65936954      -0.39975026       0.15618551       0.14555004       0.11779511       0.24419976       0.05150830
N        2.80537505       2.86070451       8.76807210       1.23602684       1.11140199       0.48500481      -0.34813880       0.55477720      -0.31501797
C        3.61099346       2.40004479       9.99075028       0.89590707       0.64181779      -1.45852556       0.21763990      -0.11326790       0.04969278
H        4.50565825       1.87660530       9.53558742      -1.02795657      -0.01316610       0.81618543       0.11569760       0.03787278       0.02335524
H        2.95171673       1.81261480      10.66902692       0.34605020       0.25731329      -0.53904773       0.00680834       0.12319870      -0.07993213
H        4.03209300       3.31852338      10.45702711      -0.51843000      -0.47821489       0.01553716      -0.13353151      -0.11098528      -0.10374872
C        1.75813885       3.86093361       9.12541595      -0.14682304       0.84534386       0.80709983      -0.60726810      -0.12793392      -0.06732158
H        1.18097518       4.34727819       8.33085047       0.33701836      -0.61049705      -0.64323224       0.04339804       0.36178221      -0.10081926
H        2.26246535       4.72132761       9.62110640      -0.06792797      -0.49783238      -0.00349358      -0.06843212       0.13784569       0.08121922
H        1.04464429       3.43065182       9.83085102       0.12374651      -0.22969748       0.08051781      -0.06046040      -0.15961136       0.05129026
H        2.49202575       2.01324482       8.28413606      -0.38379390      -0.07827810      -0.45993306      -0.15829014       0.14252989      -0.15360824
H        3.50715524       3.37651752       8.16680618      -0.64848492      -0.79542527       0.20888584      -0.06549306       0.06008844      -0.35398381
N        3.99081261      22.76891007       9.57427434      -1.56470317      -0.24613655       0.71857237      -0.37047275       0.33105362       0.31860625
C        2.84722697      21.83350201       9.13780012      -0.56315219       0.84482732      -0.58324102      -0.36440162       0.78444584       0.07907902
H        1.97306943      22.43929080       8.66074460       1.46611736      -0.57514388       0.77704215       0.18134049      -0.06897422       0.07572289
H        2.45417904      21.33351097      10.03151751       0.20944738      -0.07116648      -0.02204826       0.42174857      -0.06313064       0.33390593
H        3.18975013      21.10991422       8.35889803       0.03695019       0.44921760       0.50351540      -0.03204535      -0.24689215      -0.35077633
C        3.63362436      23.40595830      10.95650164       1.10310677       1.36473455      -2.36041013       0.84687719       0.15978635       0.59930949
H        4.48036273      24.04104419      11.30252341      -0.33129084      -0.58390583      -0.12104417      -0.07791634      -0.04427685       0.13226985