400
Lattice="25.617607840319607 0.08170869049807875 0.11262596483539324 0.005113709203537213 25.541151254396585 0.027232111274595662 0.04673987008873205 0.085946946943479 25.587678869431706" Properties=species:S:1:pos:R:3:forces:R:3:momenta:R:3 energy=-1323.2152099609375 stress="0.0015463936142623425 -1.1794060810643714e-05 6.940575985936448e-05 -1.1794060810643714e-05 0.0022506099194288254 0.00019796719425357878 6.940575985936448e-05 0.00019796719425357878 0.0007950544822961091" pbc="T T T"
Cs       9.79379729       9.86663938       3.46266174      -0.06184181      -0.07471791      -0.01469005       2.78778714       3.16022253       1.55452081
Cs       3.40685310      16.26247373       9.31450194       0.04463772      -0.00822820       0.05901887       3.19011636       0.73048249       1.88258355
Cs       3.28516966       9.32559800       9.27991412       0.00677616       0.13779601       0.00389673       1.79617591       1.23583932       0.98308898
Cs       8.88432431      15.68820657       3.45999712       0.31602732      -0.14656113       0.02458907       0.45852442       1.11394546       0.84265199
Pb      -0.09028019      12.82905944       6.24737285      -0.02696440       0.06217927      -0.02037333       1.10087717      -0.24278938      -0.47784210
Pb       6.16466556      12.74385999       6.84037462       0.08340129      -0.07375526      -0.16072536      -1.87197346      -2.36656991      -1.40595297
Pb      -0.40486000      12.79656077      -0.10405653       0.15689308       0.07334283       0.03294915       2.43871270      -3.05134119      -0.30795273
Pb       6.06935392      12.57358689       0.49976305       0.00398259       0.29243996      -0.16108819       1.67395590      -0.93535493      -1.88357354
I        3.08821619      13.16345554       6.99792775       0.11077443       0.06765510      -0.02230537      -0.77926831       0.56923841       2.20390659
I        9.70938895      12.43431717       6.24335423      -0.13129681      -0.06279114       0.01759737       1.20508739       0.26968129       2.64131875
I        5.07801670       9.40859236       5.82193444       0.42661557       0.19329718       0.15750979      -1.49139588      -0.71962116       1.38531319
I        6.94481226      15.82009548       6.91797652      -0.08117289       0.10713874       0.09073725      -2.23504443      -3.41173681      -2.78827718
I        9.10868781      12.20412165       0.28202411       0.57692708      -0.17173280       0.04301379      -1.02687870      -2.26333571       0.90835306
I        3.09838386      13.37367843      11.88202655       0.02910811       0.03657285       0.25129673      -0.09276408      -1.02599946      -1.26080621
I        6.85022506      16.21372009      12.40688895      -0.34050984      -0.13425231       0.25687349       2.53589084      -2.12777175       3.46418246
I        5.31154373       9.73522152       0.81611353       0.12867561      -0.39122100      -0.14298258       2.03296427      -1.60052622      -3.72912531
I       12.53215899      13.42810064       9.56197996       0.03235847       0.11710270      -0.10473821      -1.80552095       1.43035563      -1.34304295
I       -0.11454144      12.38215656       3.10508334       0.23449673      -0.03334475      -0.08118404      -1.30693617       2.31190820       1.31998718
I        6.09399591      13.05623035       3.57161620      -0.02437060       0.03917523       0.08308228      -0.21276889      -0.04012664       1.14639629
I        6.46790853      11.96530170       9.93038211       0.07198307      -0.07756146      -0.20161108       0.51690936      -2.59569390       1.94242368
Cs       9.38392689       9.73273880      16.08661854      -0.10666015      -0.02569439      -0.08025195       1.03041637       0.69204151       0.77288682
N        2.25552854      15.85868836      24.12237682      -0.18611721      -0.15402525       0.35235087      -1.08488765       0.63430288      -0.45964109
C        3.64128772      16.18373347      23.74785844       0.84997928       0.27117767      -0.07797235       1.55761988      -0.50585282       0.97556962
H        4.01997049      15.33633407      23.18155164       0.02423585       0.03228754      -0.75591927       0.16818353      -0.02082625       0.07490656
H        4.36587651      16.19637450      24.58995618      -0.65300435       0.31047259       0.15157908       0.11521616      -0.08163634      -0.05446064
H        3.66958527      17.16602133      23.20603318       0.01412418      -0.81239116       0.19386924       0.50544180      -0.08672215      -0.01682837
C        1.36896105      15.73779764      22.92392472      -0.82967063      -0.92212330       1.28595721       0.34222769       0.26071767       0.40909566
H        1.65548378      16.50823041      22.25402177       0.10872443       0.86519525      -0.82462039      -0.10584035       0.03531046      -0.06283620
H        0.27599351      15.76137618      23.21029724       0.92626324       0.23906647      -0.11639841      -0.16458533       0.01504492       0.32824227
H        1.56485078      14.75528364      22.50438667       0.14374634      -0.24505808      -0.41731619      -0.04968509      -0.03761456      -0.03718251
H        1.92021761      16.61934637      24.71421575      -0.39264723       0.19695452       0.46308043       0.02000760       0.00793332       0.35589370
H        2.25424100      14.91777692      24.72844075       0.03713203       0.90651884      -0.66040860       0.03945627       0.22520812      -0.14995329
Cs       3.38945844      10.00479477      22.36817790      -0.03600362      -0.05958435       0.00776586      -0.82232350       1.56426289      -0.35541740
Cs       9.30800870      15.70465978      15.54940767      -0.13977786       0.00142361       0.23247379      -1.79756522       0.80684057      -5.12249301
Pb      -0.73070480      12.49484776      19.08413425       0.20560407       0.31346467       0.10177945       4.38332103      -4.18958381       3.03773251
Pb       5.68898508      13.12143027      19.47634882       0.04253392       0.11714467      -0.22704827       1.83884324      -0.24595915       0.16029491
Pb      -0.06885975      12.83935559      12.68304265       0.01838669       0.01439065      -0.34117226      -0.20772115       1.93036755       1.67855332
Pb       6.27537400      12.74175291      12.86497951      -0.21365217       0.11814858       0.15631055      -0.69681953      -0.96749087       2.30446659
I        2.28226884      13.71874404      19.17683606       0.21999649      -0.21701506       0.10802201      -0.80334950       1.16749332      -2.84353649
I        9.09220668      12.43451504      18.48450804       0.05888558       0.08048134       0.21355801       2.23891010       2.22651164      -3.21134455
I        5.24917464      10.05721455      18.98290451       0.18067582      -0.11857436       0.04928604      -2.60415562       2.59146929      -1.57080289
I        7.12632919      16.13951075      19.36780393       0.08622035      -0.09399910       0.13672552      -3.26315936       0.05507734      -0.67038209
I        9.37493160      12.86824522      12.82661539       0.17946787      -0.08175906       0.15332136       1.67913877      -1.45475420       0.13941742
I        3.08514751      13.12229720      25.49678146      -0.26810015      -0.36340714       0.30984151       1.49376835       0.38057567      -0.26287557
I        7.28852153      15.99778397      25.47719183      -0.08162602       0.32471519       0.10491268      -0.39204844       1.92213398       1.31760973
I        6.23071464       9.57580742      13.71797438      -0.07932072       0.30041208      -0.00624728      -1.66826265       0.65908866       2.00820414
I       12.16309853      13.45451507      22.34242773      -0.12415039       0.04795302       0.24930779      -1.26608253      -0.54358101      -0.51762126
I        0.13364129      12.88326952      15.76702273      -0.06395875      -0.15053450       0.27318436       2.18547414      -0.02303532       1.27462742
I        5.36591093      13.50192105      16.33100578       0.04999555      -0.05047356      -0.30878883       1.97591749       1.66784459      -0.19108559
I        6.34745936      12.74433087      22.55412194       0.02209240      -0.10754317      -0.01642886       0.92059667      -0.39187619      -1.84720036
Cs      15.69898770      15.81911870       3.20573616      -0.00534743       0.07212471      -0.06170183       3.07307746      -1.53818161       1.51948910
Cs      10.30145058      22.77512844       9.53663020      -0.02436482      -0.01686373      -0.01098535      -2.02119139       2.38828967      -1.04137985
Cs       9.44946969      16.55903041      10.17436602       0.29025467      -0.28491832      -0.50406160      -0.07735274      -0.76020890       1.66400521
Cs      15.55788574      22.30894379       2.87559657       0.13584774      -0.00110255       0.02038883       1.27771193      -3.26149366      -1.22737162
Pb       6.32744911      19.09943716       6.55225806       0.09661327       0.00471602      -0.07323096      -0.60708871       3.73907737       2.19057502
Pb      12.69167387      19.36117887       6.17674770      -0.07309819      -0.05986512       0.24151296      -3.14199742       3.38177389       3.94727878
Pb       6.42951278      19.21439068       0.23375667      -0.07090868       0.08098657      -0.13962134      -1.26730000       1.81530562      -0.23666334
Pb      12.75762831      20.09464892      -0.01818654       0.05563577      -0.23402858       0.00885787      -2.20525704      -2.66005537       4.23405860
I        9.62398326      19.26920715       7.33053993      -0.22314292       0.13172681      -0.23190464      -2.34864250      -1.07358025       0.91154295
I       15.72416279      18.75485619       5.97104390       0.13045068       0.00326879      -0.12070133       0.31381044       1.97605935       2.94421605
I       12.12597111      16.01611237       5.65824388      -0.02042969       0.38928996      -0.05367291      -2.26051730      -0.98626915      -1.91777684
I       13.66565667      22.61402262       7.18875296      -0.17883958      -0.25967384      -0.04369343       0.32557959       0.52480922      -0.92416826
I       15.72314392      18.90346222       0.57902956       0.09489118      -0.02547771       0.00555152       0.29322363       2.83488400      -0.10607694
I        9.60134159      19.67526623      11.77968208      -0.01179821       0.39495052       0.34655463       0.76331609       0.23969129      -1.07325008
I       13.60569877      22.96948259      12.02225708      -0.10153796      -0.24374255       0.09506727       2.09891542      -0.26575644       1.40218297
I       12.12552702      16.28351849       0.85642895      -0.06388863      -0.19135242      -0.16550084       0.18561392       1.64338507      -1.67338186
I       18.64427757      19.85649582       9.29610483       0.02149050       0.13577772       0.14165737       1.22565548       0.30755439       1.78370370
I        7.38789058      18.96862537       3.16103297      -0.13173655       0.07942669       0.12982659       0.29334819      -0.56427268      -2.28036275
I       12.19908981      20.51413256       3.36386205       0.06352006      -0.02586308      -0.27448762       0.78092465       2.18958172       4.08793271
I       12.95789606      18.84172398       9.55216514       0.02898672       0.02163124       0.03084151      -1.54306579      -2.37689699      -0.77582825
Cs      15.55259166      16.15070709      15.45766135       0.04375764       0.04044876       0.26144897       0.76861838       1.93447369      -0.58335573
Cs       9.41904505      23.32458632      22.72639621       0.01405710       0.09042345      -0.22635391      -0.40003146       2.14511417      -2.81920229
Cs       9.53188660      16.88154800      22.54548486       0.09334389       0.04468255      -0.10564213       0.48494098       0.40214729       3.17210533
Cs      16.26709062      22.77266567      15.90494845      -0.20610946      -0.05142567      -0.04283062      -0.83927027       1.22746774      -0.83265716
Pb       5.92232616      18.99280383      19.49930238      -0.03868691      -0.01645611      -0.16137805       0.93557385       3.10763268       1.44794308
Pb      12.81659636      19.20169406      19.00609781      -0.28236442       0.07394748       0.08694131       2.12626183      -0.06247395      -3.00090312
Pb       6.41273025      19.69212731      12.87882482       0.09741426      -0.18818238       0.08111952       1.84482267       1.04230148       0.07923451
Pb      12.71200982      19.43354033      12.64299736      -0.03393511       0.02348076       0.09335967      -0.69011894      -1.14449891      -2.00659216
I        9.78539444      20.05893659      19.55510363      -0.04118138       0.03358909       0.19304633      -0.96686502      -1.79494380      -0.83813115
I       15.83242968      19.09392154      18.09865945       0.27651291      -0.08130269       0.05034295       1.27998038      -1.32246466      -1.18687182
I       11.55053741      16.31195587      18.65021058       0.20144209      -0.11608385       0.07306479       1.05290650      -4.01220326      -1.17893629
I       13.54947087      22.85555960      19.45464553      -0.06904156      -0.15096828       0.00863060       0.57439005      -0.07157141       2.02255298
I       15.94639571      19.23054952      13.28924661      -0.19090965       0.04502124      -0.13507163      -1.48613171      -1.38412330       4.38989139
I        9.93964881      20.34429700      24.67973090      -0.36646919      -0.23311631       0.04885584       0.21511354      -4.56581475      -3.32072149
I       13.72977888      22.91386070      24.56862502      -0.07142611       0.08535279       0.20557318      -4.01697739      -2.43962792      -1.59107513
I       12.14872025      16.32130718      13.27062448       0.10156489       0.04729282      -0.09817835       0.22834397       0.12865017      -0.38530162
I       18.48217183      18.85128998      21.99812556      -0.01958063      -0.06329773       0.02469222      -3.32669188      -0.96278611      -3.89236519
I        7.36677720      19.05966206      15.96053811      -0.08466874       0.05892944      -0.15727362       0.79667046      -1.06843397       1.27793956
I       12.48641361      19.88565217      15.97925965      -0.15242180       0.12050483      -0.24065273       5.19747007       0.61819465       1.94575581
I       13.45507759      19.01201684      22.24480080      -0.24138409       0.11336940       0.09461405      -2.49219519      -1.53607653       1.23424503
Cs       9.06251381      22.46886941       3.30815357       0.07356127       0.08331367       0.12194427       2.87709247       0.50348847       2.28816575
Cs       3.49094602       3.92791770      10.11502303       0.02960564      -0.12529238      -0.10870090      -1.28031112       1.74177097       1.39099331
Cs       3.34527057      22.71730471       9.35156288       0.19171896       0.09690007      -0.02448848       2.42003544      -0.72492120       0.08456478
Cs       9.57405224       2.98920986       3.54659175      -0.07479375      -0.00867249      -0.03352942       1.36117448       0.11305646      -1.94671676
Pb       0.31076868       0.16858622       6.46600018       0.13257892       0.11519482      -0.75644281       1.13589995       4.24517250      -1.62123231
Pb       6.60848684       0.30896466       6.48759937       0.07251857      -0.13530353       0.04941657      -1.01072074      -1.33573897      -2.04605835
Pb      -0.13615329       0.21262877      -0.24147349       0.07586019       0.12653859       0.26743309      -2.91303277      -3.18445897       3.80232490
Pb       6.43566101       0.37127738       0.11450452      -0.03999332      -0.13959137      -0.14398284       0.96189220       2.17477563       4.27216997
I        3.52627145       0.72731314       6.91208138      -0.08954634       0.15225485       0.03623724       2.83043242      -3.27337427      -2.61799819
I        9.86510097      25.02012028       6.13316587      -0.06139384      -0.06356664      -0.06817461      -2.31236789       0.68569897       1.10531826
I        6.05556678      22.63880867       5.86354036       0.01807972      -0.28934839       0.15970113      -1.60530134      -1.99520536       3.45917224
I        7.66099739       3.33043547       6.82572602      -0.14270133       0.14985297       0.02012483       1.35331155       0.12557328      -0.46097298
I        9.84774224      25.00956779       0.53595259      -0.13084363      -0.04563831       0.03629001       3.07982748      -1.64202666      -0.46705493
I        3.34573677       0.48217940      11.88223204       0.21191321       0.01250063       0.03542156      -2.14282433      -0.63132883       2.05488427
I        7.00569801       3.46511744      11.85208696       0.05487898       0.03603767       0.11161244       0.62002676      -1.52116768      -0.39801770
I        6.36251780      22.52522579       0.82628337      -0.05644868      -0.20738758      -0.32911410       1.33344399      -1.49644115       0.05652600
I       12.47702324       0.93497126       9.73745956       0.00514152       0.00850449      -0.05940521      -0.08215936       0.05905448      -1.12653751
I        1.10475117      25.13510615       3.31229847      -0.12610639       0.08823166      -0.15034903       4.03209010       0.54592717       0.05786280
I        6.03904009       0.23679911       3.18969286       0.10642385       0.10401715       0.08558362       2.98388087       0.99399869       1.53863310
I        7.14810771      24.99392818       9.47707545      -0.07375371      -0.02479270       0.11047740      -2.04012214      -0.23231907       0.27101738
Cs       9.22550969      22.52755218      16.63192431       0.03178488      -0.07864139      -0.09551841      -0.12699484       1.28723954      -0.03155186
Cs       4.04376927       3.87364757      22.14224546      -0.13506348      -0.18883485       0.08003686      -1.47874420       1.30759647      -1.13008659
Cs       2.79428956      22.71340441      21.98669346       0.21317738      -0.00353179       0.15421644       0.64350285      -1.76647163      -0.73097983
Cs       9.59589495       2.94118826      16.44736456      -0.20263390      -0.01785957      -0.25657616       0.21578985       1.16159645      -3.83109920
Pb      -0.33459733       0.10541634      19.27854508      -0.06490272       0.13733895       0.02008509       1.09909555       1.84195758       4.23489072
Pb       6.04870564       0.02973873      18.95374071       0.06430720      -0.05875462       0.23379394       2.72545695      -2.84858606      -1.49202483
Pb       0.34069421       0.07689877      12.92275861      -0.10177139       0.04356651      -0.55749526      -2.62843332       2.31150528       3.29965569
Pb       6.55203703       0.42748671      12.75978062       0.03055045      -0.11661038      -0.29523972      -0.35499594      -0.13072219      -1.99409599
I        3.00960439       0.45229637      19.66370410      -0.13031745       0.08155799       0.04897050       0.54574847       1.61481915      -0.47629868
I        9.24465918      25.41844274      19.16894193       0.24833681      -0.07813972       0.11144176       1.34070430      -1.62391943       1.45484849
I        6.01955236      22.07918663      18.85704158      -0.08548307       0.31691150      -0.00121728       2.03501023       1.08619684      -0.64061229
I        6.66352767       3.25564418      19.42286611       0.03020025       0.12612585       0.03662973       1.50200226       0.17785360      -0.60796956
I        9.65388079      25.22074504      13.18273104       0.20992284       0.00401610      -0.04592322      -0.51072318       2.33339398      -0.53908750
I        3.38803390       0.66426861      25.64690942      -0.14942416       0.06922327      -0.22936299      -0.19361768      -1.70078429      -0.67173178
I        7.61040715       3.45000575      25.41489992      -0.29509681      -0.00526408      -0.09819594       1.66345654      -0.08122882       2.30489684
I        6.11643104      22.83654572      13.27407721      -0.09436026      -0.36482585       0.00049933       0.39284151      -0.15767612       0.63428121
I       12.08725871       0.92739556      22.66620393      -0.00243307       0.03728078      -0.12344695      -1.88741375       4.35112231      -1.09754704
I        0.23745132      25.89677414      15.94110891      -0.01273186       0.08466590       0.38607658       2.19883457       1.17728074      -0.83597915
I        6.76501442       0.41744701      15.84045622      -0.10061126       0.08136249       0.19570073      -0.19028326       0.88368894       2.51783735
I        6.04915112      25.06426910      22.42281431       0.05527691       0.03035933       0.00754314       0.86533362      -3.19043627      -1.15394600
Cs      16.10060678       3.41674485       2.92799164      -0.02848332       0.05441184       0.33239501      -0.29489625       1.18297759      -1.39568288
Cs      10.27889392      10.51410750      10.03005242      -0.10368636      -0.21443977      -0.16110694       0.28697816      -2.76761768       2.07218708
Cs      10.30004810       4.43726492       9.62083148      -0.17523811      -0.12985416       0.04710980      -0.48580268       1.87880220      -0.41892469
Cs      15.65267815       9.57407861       3.49687984      -0.08345187      -0.05931563      -0.41571650      -2.82762161       0.77788842       2.32367366
Pb       6.58210720       6.55514102       6.21951239       0.05162330       0.06543477       0.00887033      -3.71566958      -1.09464779      -1.09995449
Pb      12.65737121       6.51672114       6.35317682       0.19732283       0.05883157      -0.00689627      -0.65680989      -0.30146980      -2.06457617
Pb       6.54138941       6.57102226      -0.24606080      -0.12043023      -0.06135267       0.32777173       1.34258676      -0.83076089       2.63969687
Pb      12.80044455       6.58563865       0.08923442      -0.02501436      -0.04472640       0.04349386      -0.45038430       0.22881994       1.19231257
I        9.76716962       7.57647785       6.84035806      -0.11531824       0.00459926       0.05842632      -0.12177951      -0.38386014       0.83111519
I       16.01852617       6.26277678       5.46635151      -0.13402446      -0.18000382       0.19063166       0.87189274      -2.87929004       2.53794855
I       12.17860465       3.30044928       6.32042536       0.12573441       0.21684831      -0.03179903      -3.38891044       0.06259586       1.19251690
I       13.46079635       9.85271486       6.47846115      -0.16801029      -0.09478395       0.13302867       2.32308790       4.37424922      -1.11962125
I       16.04924538       6.41294023       0.68091700      -0.16110457       0.08907233      -0.18983818      -0.91991024       3.38713141       2.55376302
I        9.70361219       7.27351028      12.21447984      -0.13741229       0.08005512       0.03573260      -2.22430516       3.82981938       2.98483739
I       13.98024164       9.92206269      11.91967011      -0.29317039       0.30037925       0.36308735       0.16495057       1.85359953      -0.67436164
I       11.59993853       3.38168846       0.49802433       0.34179391       0.06609830      -0.04143848       1.88984571      -1.19194800       1.80990180
I       17.83675566       6.80975670       9.90154329       0.04781649      -0.06333382      -0.16168143       1.26510243      -1.12460792      -1.45502341
I        7.37761403       6.35740215       2.91515018       0.04402968       0.17006969       0.24679426      -0.04433692      -3.66508402      -3.71074907
I       12.16367927       6.83664593       3.29700320       0.00250766       0.00937973      -0.10472112      -0.82922575       0.82721956       0.18240492
I       13.34386502       6.55136631       9.79995440       0.13515230      -0.11426553      -0.57298004       2.68909784      -0.13092900       0.78658418
Cs      15.90948178       3.29813506      16.41790714      -0.18052647       0.31542660      -0.32418789      -0.37284169      -1.92610568       1.82032949
Cs       9.49769742      10.39549884      22.34803610       0.02784858      -0.04072239      -0.11129038       2.85764566       0.36249406      -1.73728366
Cs       9.49411857       4.21926539      22.15309847       0.05985988      -0.14567349      -0.03679464       1.21386960      -0.41807993       3.19463175
Cs      16.06727130       9.71128287      15.88384963      -0.00187498      -0.01312845       0.02199996      -0.58143926      -0.89128661      -1.24617705
Pb       6.16579487       6.64945183      18.99881003       0.16393823       0.01853076      -0.07733629      -0.62894804      -1.63637191       2.22772452
Pb      12.43061887       7.06439169      19.32964629       0.24560703      -0.16743230      -0.13872244      -2.80731236       1.33124348      -2.46384875
Pb       6.44333766       6.57663568      12.79320996       0.11681817       0.00989864       0.00016938      -1.05101606       3.66196012       2.45395512
Pb      13.00241350       6.98673108      12.74244009      -0.08739976      -0.05937119       0.44634800      -0.91022871       0.32341744       0.88204186
I        9.40347558       7.42416846      19.44491323      -0.09107670       0.06040914       0.05847739       0.42334356       0.00620561       1.04213192
I       15.68344718       6.08077595      19.18308416       0.10988017       0.08636388      -0.01599093      -1.18761176      -0.83521476       2.04961333
I       12.12468826       3.39882589      18.80972532       0.11199432       0.36495511       0.19188165       3.30983495      -1.03152465       0.06501358
I       13.00621444       9.99112637      19.92367422       0.05317978       0.15608131       0.07888219      -0.08487671      -2.35503611      -1.05191800
I       15.81464715       5.93653960      13.71536205       0.27329170       0.15756316      -0.01588663       2.61912545       0.57634800      -1.46050419
I        9.51257197       7.17946559      24.90371006       0.24363573       0.25761086      -0.02536395      -1.20979578      -1.74126608      -3.32159703
I       13.10027919       9.87925308      25.44096745      -0.01228098       0.05803812      -0.07870098      -1.76574439       0.32170407       1.83363941
I       12.64436905       3.83674391      13.02981107      -0.20339342      -0.28060344       0.07033628      -3.08819388       0.38723046      -1.21578403
I       19.00004556       7.29439971      22.55394987      -0.13106257      -0.15677860      -0.02788428      -1.26122170       1.15235584       0.16402147
I        7.40139407       6.20839777      15.92503521      -0.07576446      -0.06585456      -0.02823958      -0.42637800       0.67516781       0.42979929
I       12.67348822       8.13387609      15.93935328      -0.02982422      -0.15893421       0.16348570       3.30075178       1.06309822       1.18928571
I       12.50864854       6.31073909      22.47953168       0.33122904       0.04280264      -0.11304717       0.52070624       1.79235354      -1.35957141
Cs      22.19071401       9.32150202       3.38717787      -0.02557179       0.34956376      -0.01116640       1.70085850      -1.34738741      -1.65721378
Cs      16.14566973      17.13810802       9.63670430       0.08094195      -0.19280579       0.00479226       2.63195121       1.31743881       0.36982565
Cs      16.07620040      10.39824703       9.23272275       0.17165440      -0.02934361      -0.10701613       2.16166707      -0.07335933       0.97923247
Cs      21.97772871      16.09893386       3.36573412      -0.01715578      -0.01775023      -0.04612010      -0.73176411      -1.82355692       0.60413888
Pb      12.86786689      13.15667042       6.32009965      -0.14344757      -0.24508370       0.00348979      -3.34711840       0.70536263      -1.23787467
Pb      18.86355014      12.76048561       6.71901130       0.32274497       0.15437160      -0.60985886      -2.00237295       1.37245712      -0.63365015
Pb      12.11303398      12.97591845       0.08984620       0.22089891       0.19995744       0.03948287       0.44748987      -1.41144011      -0.22030221
Pb      19.17710598      13.31158194      -0.12116429       0.12536060       0.09318538       0.28532429       0.68963949       1.42573355      -2.24589558
I       16.04290249      13.67177477       6.32760331      -0.37377474       0.02616458       0.21157310       0.74291229      -0.28945978      -3.03163136
I       22.47040552      13.01276017       5.68158232      -0.31676725      -0.17440192       0.14857790      -2.05801521       1.30848596       0.88097190
I       17.98694421       9.67071468       6.11940696       0.48178958       0.03760839       0.25196713       0.42680236      -2.51570367       0.62385260
I       18.85578032      16.18157516       6.95846242       0.31177406       0.02427410      -0.04172070      -1.75632585       2.09487765      -1.58674144
I       22.33170455      12.57581662       0.73781655      -0.26049633      -0.11025600       0.07404405       1.55955612      -1.13329366      -1.13495776
I       15.68225271      14.30696534      12.29381101       0.18723682      -0.16925157      -0.16984134      -1.51352994       1.10232656      -0.55404645
I       19.54751395      16.15791219      12.26934917      -0.05482442       0.07996358      -0.18105663      -1.78622139       0.33478238      -2.43015149
I       18.70109635       9.94631274       0.14042242      -0.09476103       0.51941980       0.04726835      -1.09360925       3.15588161       0.54695892
I       25.19615402      13.31447968       9.62842880      -0.09340444       0.08633169      -0.24942627       0.72698462      -1.50674863      -1.31095004
I       13.49909602      12.62000594       2.95765783      -0.23832896       0.01808565       0.03563883       0.02050308       0.44119301       1.85825105
I       18.88764154      13.11546965       3.39076768       0.05486304       0.10482470      -0.09594384      -0.87469292      -0.84802488       0.35767041