960
Lattice="27.587788045932736 0.1713156198331262 -0.024128181959798142 0.21508958969164005 26.621055348951053 -0.16367083605729757 -0.04364971009545631 -0.11879002433357083 27.659755478423506" Properties=species:S:1:pos:R:3:forces:R:3:momenta:R:3 energy=-4265.9677734375 stress="0.0012482641031965613 0.000602934742346406 5.5404536396963515e-05 0.000602934742346406 0.0021121858153492212 0.00025716036907397205 5.5404536396963515e-05 0.00025716036907397205 0.0018632495775818825" pbc="T T T"
N       10.83383668       9.18331830       3.49765339      -0.04431602      -1.17750337       0.74314936       0.18985480       0.58926912      -0.21120414
C       10.71346341      10.16604103       4.65020563       0.45634783       0.30156490      -1.44003177      -0.45196890       0.88955370      -0.46586845
H        9.75121775      10.68385351       4.57852942      -0.21999967      -0.33226328       0.17075821       0.06327644       0.00834122       0.14607343
H       11.46847658      10.93977202       4.43676862       0.12180794      -0.15033410       0.29919083       0.10297195       0.04765752       0.20362266
H       10.89275615       9.63592615       5.56937993      -0.03454741      -0.15967979       0.54506369      -0.09837678      -0.11262467       0.02588040
C       10.61973815       9.84803676       2.18187013      -0.28520854      -0.20206826       0.51086627      -0.40484604      -1.28103203      -0.73749439
H       11.28454430      10.69546115       2.15345586       0.18460879       0.59863274      -0.19668468       0.35314766       0.13658300      -0.09766331
H        9.55513430      10.09359491       2.10776904       0.00366068       0.38825445       0.01243754      -0.05054443      -0.11542614      -0.05146673
H       10.84022279       9.18649891       1.36607174       0.30658441      -0.64191745      -0.44611343      -0.23074899      -0.04437924      -0.16238472
H       10.10702350       8.43114947       3.61416113       0.26707328       0.39507454      -0.01234249      -0.33117297       0.06321731      -0.30261001
H       11.75439843       8.64152999       3.57544250      -0.68943764       0.82035324      -0.24489200       0.02653548      -0.05426718      -0.25686427
N        3.85340876      17.18420684      10.03170295       2.68023361       0.72251184       0.93962776      -1.01751030       0.58997708       0.71016399
C        4.35673639      16.18158362       9.06413034      -1.01469665      -2.30179538       1.65321913      -0.03801769       0.69757123       0.45486550
H        5.08740488      15.50119834       9.55352240       0.18973500       0.78854598      -0.15421202       0.23869776      -0.35713225      -0.04968975
H        4.73225415      16.70164505       8.23310721       0.58091986       0.45781596      -1.36274125       0.07652924       0.18147783       0.00454940
H        3.54005334      15.45704385       8.84937949       0.03719810       0.67998050      -0.30970292       0.03375432       0.43706227      -0.18237671
C        3.60839932      16.71196879      11.42707868       1.23074988       0.35579726       0.79735420      -0.75189011       0.15411471      -0.48155636
H        2.61186565      16.36737689      11.63011049      -0.75358935      -0.07341717      -0.28721226       0.13524154       0.22364319       0.23914419
H        3.87177019      17.59695005      12.06929732      -0.45422149      -0.85041078      -0.17977705       0.14530589      -0.18910126       0.19336806
H        4.31879941      15.87924159      11.67613316      -0.34820724       0.64592325      -0.38119679       0.17310574       0.22086880       0.26037542
H        3.13374817      17.72652748       9.58469823      -1.13205554       0.50507783      -0.10292188      -0.19892849       0.23254696       0.05631249
H        4.66205728      17.91776545      10.19488340      -0.99191445      -0.85717052      -0.64564190      -0.24310433      -0.06193438       0.08526729
N        3.32195877      10.43562973      10.65648114      -0.57872872      -0.27845018      -0.40487926       0.34836887      -0.04424772       0.72929050
C        4.69797375      10.07716104      10.29031590       1.90002010      -1.10396344      -1.78579218      -0.32359069       0.40127763      -0.68922025
H        5.51078754      10.30280538      11.06246736      -1.25025521      -0.18095327      -0.67643498      -0.13911532       0.11086311      -0.17996628
H        4.88593417      10.66809078       9.35101617       0.25585835      -0.23214679       0.75620178       0.05604702      -0.30552431       0.02238538
H        4.81949625       8.98047808       9.91179117      -0.55540647       1.48254371       0.97274502       0.05004902       0.34528494      -0.11132060
C        2.36258332      10.27541855       9.47532024       0.73517386      -0.96052221       1.47338034      -0.23859216      -0.17348880      -0.81235508
H        2.78227473      10.81253776       8.67781782       0.60208307       0.95384570      -1.29520689      -0.15798030      -0.04139429       0.33179544
H        1.37501448      10.63593164       9.70826471      -0.48125756       0.14120879       0.29313059       0.08996769       0.02744318       0.05621273
H        2.39009097       9.20645429       9.25043938      -0.30146491      -0.06048598      -0.11032367       0.22819880      -0.46867168       0.39600396
H        3.35892609      11.40355335      10.98051197      -0.35243312       0.48584504       0.30604506       0.16869824       0.07829199      -0.03814927
H        2.95915158       9.86031744      11.41526674      -0.04565912      -0.17657475       0.48867748      -0.03808883      -0.10431420       0.11278054
N       11.67927071      16.27126599       3.07651979      -0.87769334      -1.66286467       2.05126624      -0.68544342      -0.14977692      -0.97545559
C       11.12967832      17.57679355       3.39193519      -1.64457279       1.94537453      -0.43687880      -0.46515298       0.34841627      -0.71514067
H       10.28133335      17.46653730       4.10941960       0.55920572      -0.07431520      -0.14459267      -0.25198768      -0.02524765      -0.13659523
H       10.64766243      17.95532095       2.44989876       0.47424174      -0.01101691       0.56538388       0.12465282      -0.13835911      -0.17236307
H       11.83796840      18.34550668       3.79277946      -0.10793652      -0.81442286      -0.32828111       0.00406718       0.16340127       0.14802302
C       10.64665366      15.29244133       2.61814106      -0.30929350      -0.11160081      -0.98497396       0.07914380      -0.99529245      -0.04328236
H       10.16102087      15.66677754       1.71790181       0.11248926       0.52293477      -0.28963961      -0.48013893      -0.05869105      -0.15989781
H        9.81761875      15.13161390       3.31245612       0.41188627      -0.08990602       0.57748108      -0.24949894       0.25476636      -0.10999411
H       11.16762918      14.38712777       2.28063388      -0.16426742      -0.18544729       0.50814862       0.00973717      -0.00107176       0.12409902
H       12.07584318      15.87661820       3.97505048       0.32834591       0.31915069      -0.80975545       0.32484378      -0.07148698      -0.11478043
H       12.36239321      16.26166501       2.34908728       1.32334707       0.39155923      -0.68813526       0.09494313      -0.22178036      -0.10491467
Pb      -0.14326791      13.27434663       6.84226279      -0.26068325      -0.01496163       0.22789797       3.84562950      -1.82713452       1.17319323
Pb       7.51551651      13.34427768       6.60888839      -0.15260635       0.08054983       0.26476901       1.05683616       2.63664551      -3.38351598
Pb       0.08731075      13.31856374       0.45936644      -0.16046902      -0.01251247      -0.13500719       2.56778481       2.15163753       2.15172232
Pb       6.93705399      13.49500606       0.00083125       0.22909454      -0.23579007       0.02612717      -3.32768747      -2.01288316       4.72202681
I        2.75295703      13.80076652       5.99434447       0.28870793      -0.30915316      -0.00303266      -1.32747193      -0.41354477       0.02685261
I       10.51031411      13.56825673       6.47124557       0.13204330      -0.00039068       0.10034397       0.69376743      -2.07007432       2.98434677
I        6.50245576       9.60608623       6.03276538       0.13374566       0.35767685       0.05216588       1.27926891       0.70853485       0.86205042
I        7.60555013      16.65362381       6.97602735       0.04963800      -0.14117456       0.01201112       0.63390288       2.11671791      -2.85509141
I       10.01279654      12.99225691      -0.49801130      -0.19521154       0.06577666      -0.02621776      -0.66535366      -0.74914476       1.10009785
I        3.93278662      13.18389000      13.41265277      -0.11557006      -0.03360736      -0.07400824       0.78581950       2.62376250      -1.01561444
I        7.20522213      16.44170435      13.70700079      -0.19638308      -0.10784087      -0.04864224       0.14985025      -2.43793540       0.80406384
I        7.12961193      10.02474738       0.01334934       0.16330484      -0.30184669      -0.21567276       0.76471992      -1.95496056       1.93014739
I       14.19567520      13.59416027       9.92665451      -0.10593633      -0.11117379       0.07053901      -0.82816434      -2.07727594       2.91259914
I       -0.35569757      13.60856213       3.36893115      -0.12104818      -0.09863141       0.12037886      -2.95177417       2.29958391       2.03335082
I        7.51346423      12.95093205       3.63648909      -0.12068158       0.06220659      -0.39578937       0.27053212       2.55314965       1.14221606
I        7.42496871      13.01881000       9.90169279      -0.01546960       0.01236469       0.11799813       1.69160519       1.66270020       3.28863957
N       10.89671522       9.85609712      16.48574000       2.90873004       0.76795109       1.59802961       0.28864304       0.62362578      -0.31817831
C       11.07416622      10.89350261      17.59320593      -1.86939487      -1.39507540      -0.17144996      -0.43283860       0.21660126       0.55903498
H       11.44665466      10.31626848      18.40990428       0.07756835      -0.35087704       1.07971043       0.12406746      -0.00625031      -0.15866777
H       10.02425305      11.18692985      17.73593232       0.47020515       0.63247363       0.37303316      -0.03529367       0.00768115      -0.03843132
H       11.80579856      11.65280168      17.38577189       0.03896451       0.52973949      -0.62709097       0.14164252      -0.06788873       0.02298579
C        9.72679779       8.98899921      16.57000011      -0.54905360      -0.72357152      -0.02232116       0.46439018       0.56621627      -0.12547864
H        9.29041443       8.97762414      17.60751860       0.60445393      -0.32096629      -0.73712966      -0.07434581      -0.14588030       0.35373919
H       10.01372106       8.00963904      16.11410287      -0.33506761       0.27473072       0.70878651       0.16767396       0.18770143       0.02114099
H        8.98781447       9.42797759      15.90101588      -0.47590106       0.05757532      -0.05417007      -0.12378350      -0.14597846       0.05010680
H       11.84643147       9.40241589      16.49310813      -0.94709629      -0.38614626      -0.34371594      -0.29235053      -0.17583037      -0.16653538
H       10.86574127      10.43181547      15.68521417      -0.12788467       0.66016843      -1.87570512      -0.01706092       0.10669150      -0.13308126
N        3.16299876      15.48212158      24.08457283       1.18597185      -0.28828601       0.94770584       0.23335139      -0.23077051       0.64102582
C        3.07899210      15.86678270      25.50265800      -2.42350073      -0.93997909       0.16848229       0.07792529       0.12616307      -0.46549481
H        2.18622234      16.50647998      25.63820193       0.47513773      -0.09099992       0.15292068      -0.06066334      -0.04798118       0.09551276
H        3.98012729      16.30856659      25.75633788       1.77955396       1.53967663       0.49164301       0.19826456      -0.03269660      -0.08719779
H        3.03353819      15.00325957      26.16893037      -0.38659406      -0.29790535      -0.18283192      -0.01772747      -0.13265017      -0.19099850
C        3.32665630      16.69839556      23.31919535      -0.64134123       1.53975077      -0.98711563      -0.20513057       0.61679158       0.60134187
H        2.53952115      17.45801842      23.64378212       0.67289730      -0.80010863      -0.58198954       0.00217795      -0.24585377       0.30229211
H        3.22682510      16.40631377      22.24455823       0.20402081       0.64788609       0.47242665      -0.07762074      -0.09632614       0.21103811
H        4.31295232      17.12148090      23.58207859      -0.16108655       0.00208113      -0.40083198       0.13527465       0.04551555      -0.00290173
H        2.32505491      14.97022846      23.73427513       0.38630116      -0.59436124       0.23628717      -0.01220258       0.13857789      -0.02573128
H        4.10413862      15.00500331      24.03715782      -1.09542877      -0.70088941      -0.58468003       0.39522555       0.28175594      -0.24262486
N        3.01690910      10.82613129      25.29751670      -0.14509397       1.30572815       0.53503666       0.08830771      -0.33194306      -0.79163063
C        4.43976594      10.45271993      25.03605035       0.98055367      -0.73218645      -0.30588791       0.73418589       0.36352338       0.29846366
H        4.77439737      10.67726772      23.93879027      -0.74942728      -0.60950418       1.79521646      -0.32518880       0.34033463      -0.03416502
H        4.57465253       9.35458948      25.38693501      -0.23091093       1.45608994      -0.95828812      -0.13406530      -0.15318443      -0.05799949
H        5.06230212      11.03859594      25.75659141      -0.18719431      -0.08945967      -0.62763621       0.30679341      -0.11113666       0.03815890
C        2.01412064       9.78729377      24.90403388       0.86432479      -0.75168714       0.61540329       0.62498329      -0.15151316       0.72109307
H        1.03654821      10.03106472      25.31640172      -0.25799559       0.31852296      -0.37062822       0.17539654       0.11283598      -0.06822776
H        2.28714854       8.84619015      25.41841900       0.17634984       0.23834392      -0.24250334       0.25245256      -0.04410644      -0.23618565
H        2.08611208       9.64007262      23.81596337      -0.26360201       0.15944157       0.21493226      -0.07524056      -0.21047996      -0.06235811
H        2.72911259      11.72760209      24.77342833       0.36569873      -0.87313148       0.56732053      -0.29271716       0.13362483      -0.33391813
H        2.98234880      11.10675468      26.34688400      -0.49790920      -0.36828917      -1.27796429      -0.10159156       0.06467663      -0.08737058
N       11.47132200      16.42773519      16.77373004       0.78213924       1.09582023      -0.60967175      -0.58844425       0.43374609      -0.67324477
C       10.50858213      16.51569943      15.61577105      -0.45468766       0.71163088       1.05672643       1.00456158       0.52375493       0.40617435
H       10.02896687      17.54980537      15.59600637       0.60206386      -1.13897419      -0.02310465      -0.08892781      -0.12418968       0.08291458
H        9.77330488      15.76399989      15.85681794      -0.60280549      -0.32337382      -0.17459717       0.17381182      -0.18913518      -0.06125341
H       11.02277964      16.24845178      14.70025278       0.14751683       0.17563228      -0.29499200       0.39297716       0.05758690       0.02040201
C       10.83364748      16.35882588      18.13071239       0.19064957       2.27137129       0.46789802       0.06791922       0.07944675      -0.07437587
H       10.68126719      15.39698114      18.52064607      -0.09343636      -1.78613355       0.04331011       0.17626255       0.03552780       0.12558802
H        9.86627366      16.89885171      18.13876489       0.23378015      -0.22946045      -0.48652974      -0.11013518      -0.02158629       0.22765223
H       11.42948042      16.92464514      18.90133760      -0.03329200      -0.51390516      -0.81785049       0.04416349       0.08451075       0.02483825
H       12.02566565      17.34304856      16.72930665      -0.11885192      -0.72059972       0.19836107      -0.09590887       0.00891626      -0.09144703
H       12.19034462      15.66461540      16.55207851      -0.64277919       0.32924893       0.71138094      -0.05840551       0.06948761       0.37738494
Pb       0.02941620      13.05926706      21.05124661       0.10171976       0.01973820      -0.32870133      -1.66421552      -2.66705254      -0.64723458
Pb       6.37658646      13.03036033      20.66844565      -0.03733248       0.12547729       0.02130723       0.20153488      -0.82775271      -0.53306699
Pb       0.33507023      13.61787596      13.64103240      -0.14184347       0.01418652       0.03089380       2.28132068      -0.70713744       0.22556915
Pb       7.07641927      12.99203540      13.36854988      -0.05149070       0.07114353       0.18292975       0.90189465       2.30826340       0.07155709
I        3.17547384      12.89656912      20.96146796       0.51391838       0.00199075       0.02272431      -2.05739234       1.34962405      -2.06066926
I       10.69296995      12.91243604      20.74840880       0.17006909       0.05271365       0.16784379       0.13411068       1.38924176       1.23288270
I        7.25955870      10.09272631      20.41782431      -0.08985709      -0.26382609      -0.02136131       1.34054865       1.44449086      -0.34815251
I        7.13381072      16.11740880      20.12135618      -0.06270480       0.06407532      -0.12451052       2.97641662       1.21480357       2.64470396
I       10.50381461      13.23726920      13.47989088       0.09217455      -0.15048497      -0.04612158      -3.60603346       1.08776175      -1.27005772
I        3.09248307      13.26974056      28.16850130       0.04981679      -0.04059561      -0.02413232      -2.05983935       3.29524487       2.51828502
I        6.17826320      16.28884890      27.86073526       0.15622847       0.14261513       0.05544285      -0.79718582       0.24646287      -0.38044702
I        6.74622994       9.57678377      13.45273353       0.01315021       0.20198896       0.16221324      -0.92873274      -1.88294530      -1.61403859
I       14.02114939      12.68820699      24.24617671      -0.05344319       0.02888188      -0.06403426      -1.39057163       3.00828883      -0.88937091
I        0.66701375      13.09313792      16.78874227      -0.36625737       0.27468342      -0.22252676      -1.31978174      -3.07595884       0.84498373
I        7.10145213      12.80276786      16.65290471       0.23026618       0.07082337      -0.20749412      -1.65278592       0.47617842       0.21298484
I        6.77353520      13.68743812      23.60836887      -0.04872090      -0.05288026       0.13196238      -1.69938264      -2.22416692      -0.96155534
N       17.58296882      17.19717073       4.02673826       1.11902386       0.93454265       0.54812232       0.97615020      -0.60896925       0.38228867
C       18.44510218      18.02965313       3.15146049       1.25638740      -0.54741775      -1.23222711      -0.77548554      -1.24537919       0.59857585
H       19.17625637      17.43653003       2.47585412      -1.06809324       0.47350050       1.25548715      -0.14774990      -0.14786654      -0.13524786
H       19.01221934      18.73709305       3.79752012      -0.26428876      -0.35424006      -0.43266477       0.05579393      -0.16362502      -0.19270104
H       17.77553508      18.55641419       2.47111150      -0.07422118       0.31836270      -0.08577623       0.21024239       0.08945931       0.07112588
C       16.70704594      16.21903543       3.34975816       1.50280303      -0.22902321      -0.88262338      -0.54741514       0.59356210      -0.49215932
H       16.11897657      16.75507964       2.61962424      -0.30093481       0.30704598      -0.34949968      -0.02981250       0.05377573      -0.23086619
H       16.05313767      15.77694650       4.08067297      -0.19864378      -0.61565270       0.33867599       0.01973788       0.04893966       0.10333320
H       17.42290374      15.53690166       2.78062772      -1.03168121       0.38106598       0.73741710       0.07558989       0.02385475       0.34503219
H       17.17610618      17.90813130       4.64598587      -1.52542681       0.27982768       0.09156496       0.02467146      -0.03610248       0.07055030
H       18.15713068      16.80800128       4.77872214       0.67037127      -1.10533886      -0.04691314      -0.07032679       0.03541934       0.13933274
N        9.68907630      23.41782162      10.84667034       1.11684570       1.30111265       0.85808198       1.26484625      -0.31434639       0.29676786
C        9.25407652      23.51117585       9.45055850       1.38004831      -0.66988518      -0.55970656      -1.47907637      -0.51666361      -0.04412872
H        8.65179564      24.36849280       9.41550909      -0.92129077       1.47362793      -0.57288325       0.02867670       0.18243527       0.00862966
H        8.64969807      22.66243490       9.09658029       0.41006518      -0.20077571       0.31265384       0.19847159       0.08016245      -0.09922210
H       10.22328223      23.63018970       8.88487257      -1.13819310      -0.07165830       0.03529904       0.18651518      -0.09201525       0.28416739
C       10.94732784      22.66431547      10.99699677       1.94952530       0.39349513      -0.24970851       0.27294459       0.35003427      -0.02091434
H       11.80324338      23.22048814      10.42631598      -1.36771899      -0.84591912       1.03815726       0.14205186      -0.17856466      -0.01964829
H       10.87866338      21.63801127      10.60961392      -0.36858526       0.14044737      -0.30564230      -0.32894906      -0.09160135      -0.16281478
H       11.15558982      22.54958507      12.07544500       0.17522562       0.31810466      -0.27275298      -0.20753219      -0.04669870      -0.14524326
H        9.01050383      23.03107305      11.51330215      -0.96298857      -0.37121052       0.24745924      -0.21540270       0.03917298      -0.37901680
H        9.82692812      24.41768893      11.24675913      -0.06912858      -1.44599165      -0.56338182      -0.01097725      -0.00912056       0.21065593
N       11.02910339      17.18752573      10.21022975       0.10117404       0.31741183      -0.32852085       0.02773712      -0.26236854      -0.26574994
C        9.58537255      16.90342917      10.49309313      -0.41237920       1.87223210       1.12510989      -0.65949090       0.51261947       0.00695712
H        8.86310452      17.65953595      10.05706744       0.95002480      -0.76701838      -0.08868466       0.00059321      -0.17999631      -0.05916703
H        9.47267993      17.00301369      11.59225865      -0.01933677      -0.00045287      -0.31252954      -0.03752093       0.04384415       0.08989207
H        9.35472729      15.90056289      10.27016686      -0.31121793      -1.36696222      -0.73074944       0.02121589       0.21453440       0.31121996
C       11.51917053      16.91481634       8.78778863      -1.62246767       0.90072801       0.17210876      -0.23437247       0.15418646       0.56777171
H       11.48570349      15.86007317       8.62949784      -0.11795200      -0.97987554      -0.04096997       0.02481894      -0.18025075      -0.09051837
H       12.52347560      17.25671766       8.65401008       0.75871900       0.45174914       0.13797870       0.42579344       0.07006960      -0.17862757
H       10.83304609      17.44134718       8.05284070       0.53826975      -0.48355281       0.82721816      -0.20925694      -0.02000122      -0.07448074
H       11.58702593      16.64675162      10.90860291       0.16180933       0.00965524      -0.26321360      -0.02911128       0.03469868       0.22840451
H       11.18187290      18.17883033      10.48259338       0.17045680      -0.20345991      -0.31027325      -0.03304878       0.02364931       0.02539915
N       17.36482519      23.89135786       3.35330425      -2.97459216       0.69681484      -0.14324361      -0.00944160       0.57465644      -0.25219534
C       17.74273660      22.75930638       2.50873589      -0.26686175       0.13738376      -1.28903648      -0.46737107       0.22952911       0.59877585
H       18.29517491      23.05780975       1.60477840      -0.18962106       0.11068614       0.16323989      -0.26365213       0.10384026      -0.01468270
H       16.87223783      22.11497530       2.27543738      -0.00292517       0.65924850      -0.15822008       0.08709582       0.13079401       0.32971178
H       18.33141069      22.17097531       3.11876903       1.79257387      -1.50929699       1.18473896      -0.15239450       0.10635012       0.22154419
C       16.45908810      23.34789196       4.49733740       0.98055635      -0.01251954      -0.17152809      -0.81859188      -0.04088313       0.42542574
H       17.22752087      22.83898656       5.17269580      -1.29511848       0.76240255      -0.25297216       0.16888208       0.11200290      -0.27420739
H       15.76626775      22.58211962       4.09384755       0.37763982       0.26805365      -0.05833381       0.04145364       0.16261073       0.07616322
H       15.83060511      24.18024803       4.89037467       0.72674561      -0.38166598       0.20563141      -0.21622021      -0.05571922       0.09504755
H       16.81042060      24.54449192       2.73510123       0.28663937      -0.34971588       0.66435933       0.14374253      -0.08196637      -0.14464234
H       18.07820655      24.47887793       3.79599935       0.65290492      -0.11681848      -0.11034235      -0.05175822       0.08179848       0.21756361
Pb       6.91260498      19.64294745       6.81141862       0.34226666       0.04490008       0.02725073      -0.35532420      -0.43845865       1.50162327
Pb      14.16518366      19.93206401       6.72500334       0.15479607      -0.06158749      -0.13026658      -0.30358813      -1.78817615      -1.16221544
Pb       6.85897516      20.28174524       0.33854295       0.08564832      -0.12939099      -0.21105059      -0.41900714       1.37895481      -2.52929248
Pb      14.91055435      20.11079989      -0.27079256       0.03837162       0.02074833      -0.19897598       0.66117817      -1.74640459       2.19732415
I       10.11279020      19.74249951       7.02292215      -0.20366053       0.31928931      -0.13850645       1.80902056      -2.02859231      -1.39845602
I       17.46624442      19.77228922       6.81464076      -0.06416296       0.05821738      -0.16439665      -0.65016993      -2.20508151       0.32044763
I       14.21186613      16.79677898       5.75952707      -0.24008010      -0.10697330       0.20423184      -2.02316964       0.02183320      -0.95170532
I       13.11636178      22.85455173       6.85592500       0.00691619       0.28725361      -0.07561784      -2.25682545      -2.16002016       3.13958490
I       18.14645279      19.98709863      -0.93321976      -0.28407126      -0.06619287       0.27093788      -1.29070832      -0.01730143      -0.69340292
I       10.56228787      19.85605253      13.73440933       0.08485251       0.04560632      -0.13465084      -2.56760954       4.29110923      -2.65668211
I       14.83278736      23.21443712      13.66892380      -0.04475229       0.10685495      -0.10030708       1.14690589      -3.00956193       0.41091888
I       14.26783297      17.06274507      -0.47453307       0.12112448      -0.04842791       0.10149941      -2.43584249       1.45144968       1.02632040
I       21.16842832      20.49850028      10.57511879       0.16686483      -0.23435730       0.35123318       1.66323663      -1.92835244       1.40587352
I        7.25749180      19.78510630       3.22821857      -0.00450372       0.09849871       0.19403466      -2.00731780      -2.62581567       0.59452695
I       14.20392654      20.52915608       2.66122929       0.26652137      -0.39866628       0.06200579       0.77331751       0.01325893      -1.21098778
I       14.45357575      19.97961532       9.64476813      -0.12278144      -0.04646092       0.31721732      -4.79342797       0.05396413      -0.60201670
N       17.96356955      16.34625389      16.05221842       0.14226941       1.66345468       2.04133317       0.14466239       0.72818314      -0.56921545
C       18.59825639      16.70495449      17.37662024      -0.41388991      -0.64208387       0.84484887      -0.58290654      -0.54026068       0.05940760
H       18.32180093      17.72179230      17.78744472      -0.50587325      -0.85654967      -0.65677678       0.08989665       0.31290816      -0.45176812
H       19.67927096      16.77405783      17.37249781       0.49478170      -0.51560417      -0.46732381      -0.00131629      -0.24774743       0.13148747
H       18.21438271      15.87500862      18.03036494       0.76339670       0.90648771       0.04998094       0.24069645      -0.01514883       0.13216580
C       16.50469875      16.21772780      16.39564009       0.74095295      -0.70891146      -0.56766366       0.60084329       0.20837706      -0.42489760
H       16.47840925      15.30729003      17.06356029      -0.60986983       1.11322355      -0.30606958      -0.07772376      -0.04362558      -0.07331543
H       16.03777006      15.99343325      15.44495010      -0.68212629      -0.12787981      -0.21323890      -0.02532171       0.16853322      -0.08796762
H       16.13301039      17.20574048      16.78237841       0.22270297      -0.95717370       0.06287485       0.18991919       0.10801943       0.29825003