880
Lattice="26.63337488838786 0.06570847542830789 0.1392100555717594 0.015497193531057185 26.98055923669468 0.19168511072932382 0.10551907519463018 0.1743267954902615 26.652031917116854" Properties=species:S:1:pos:R:3:forces:R:3:momenta:R:3 energy=-3847.7861328125 stress="0.0009632448200136423 -0.0006487237405963242 -0.00024640053743496537 -0.0006487237405963242 0.0020762083586305376 0.0002645580389071256 -0.00024640053743496537 0.0002645580389071256 0.0008974238880909979" pbc="T T T"
Cs       9.66081178       9.61243318       3.27529125      -0.05437286      -0.01143918       0.03780751      -3.92865234       1.46198546       0.00568461
N        3.65817292      16.76537599       9.45768761      -0.43593512      -0.45021033      -0.74542483       0.75479043      -0.93415725      -0.31965184
C        2.41897226      16.46492962      10.22274148      -0.01498365       1.40765519      -0.82175136      -0.85237541       0.20581648       0.15337684
H        2.25578963      17.35693840      10.81485126      -0.40591537       0.19436052       0.38794558       0.20502949      -0.07209176       0.23494697
H        2.49621411      15.60987396      10.82356294       0.66218984      -1.37692087       1.06925842       0.17310614       0.00776699       0.00436533
H        1.57481301      16.27749637       9.56485015      -0.10425374       0.23691755      -0.43668915       0.01676677       0.13792344      -0.06803728
C        4.83027504      17.06848608      10.29421617      -0.26863701      -0.21319271       1.04082572       0.09300498      -0.29253090       0.56688866
H        4.96926127      16.33998409      11.11867668      -0.29271438      -0.12812924      -0.53399370       0.29517610      -0.02086102      -0.21096676
H        4.77009006      18.04800460      10.78774500      -0.39000963       0.13832200      -0.29987758       0.15097938      -0.23875931      -0.03799110
H        5.68052237      17.05606848       9.65382355       0.94834327       0.00483400      -0.52243259       0.25258712      -0.14696092       0.10789408
H        3.44117452      17.56354728       8.73720132       0.29249202      -0.28647977       0.61250366       0.02401753      -0.07314392       0.25770339
H        3.88514855      15.95680092       8.83909656      -0.11076478       0.03687733       0.19404488      -0.16313715       0.04538266       0.20951235
N        2.65406621      10.67865497      10.57658927       0.49236208       0.75883877      -0.44392862       0.62072350       0.10889691      -0.39638281
C        3.79254470      10.68154208       9.58514845       0.39068274      -1.20469168       0.67142486      -0.32620911       0.06076089       0.71561646
H        4.69857256      10.84158642      10.19492588      -0.08801814       0.78070927      -0.42953086       0.16287576      -0.14752706       0.32659250
H        3.54197464      11.34128287       8.75149567       0.36486124       0.28081942       0.22195717      -0.14024511      -0.11011477      -0.16816112
H        3.99022152       9.65899880       9.19756744      -0.66924733       0.20739953       0.04932172       0.29289464      -0.05198350      -0.03250554
C        2.74545012       9.58733189      11.62799845      -1.40868675       0.40211526      -1.38626143       0.24141024       0.39548401      -0.59717078
H        3.59482124       9.75307643      12.27637374       0.02148095       0.40382816       0.46745638       0.40760323      -0.17203279      -0.07036324
H        2.92215542       8.65034460      11.08111923      -0.09845998       0.00286496      -0.00102828      -0.14376299       0.08350378       0.12865047
H        1.70863350       9.60402864      12.04783501       0.94981935      -0.32588230       0.44705774      -0.21476729      -0.18075769       0.06860301
H        1.78171810      10.66485489      10.03959977      -0.57214507      -0.84238423      -0.32687656      -0.10354505      -0.04954114       0.21881306
H        2.50117039      11.65967701      10.94214813       0.65521718      -0.58069894       0.51175210       0.20662934       0.16518676      -0.04727459
N       10.95691403      16.60721855       3.76355741       0.49836899      -0.38064225      -0.52269106      -0.24098344      -0.42279712      -0.61653308
C       10.00679065      15.41143969       3.43702883      -0.12179256       3.02753629      -1.23496951      -0.04460929      -0.75534877       0.49821430
H        9.64975452      15.74360049       2.39674310       0.26973734      -1.09035295       1.16168235      -0.14568297      -0.03157689      -0.00210760
H        9.18271611      15.56636675       4.11950759      -0.37551887      -0.39825928       0.37389804       0.19565083      -0.19497385      -0.01089996
H       10.48670422      14.45282914       3.49038917       0.41700778      -0.47374000      -0.01529848      -0.09758468      -0.05258068      -0.00461526
C       10.18784179      17.90620735       3.78380089       2.09612472       0.23200808       1.56400876      -0.93509022       0.52598445       0.25010501
H        9.67298560      17.93365179       2.89296835      -1.22817940       0.38378360      -2.32390414       0.06909961       0.03014842       0.24019593
H       10.86808893      18.80234155       3.91134503      -0.47538662      -0.94128947      -0.22041960       0.05082449       0.13455281      -0.15081947
H        9.47008043      17.88695401       4.58358313      -0.37228252      -0.13728263       0.68160907       0.10590818      -0.13999478       0.06504393
H       11.65601052      16.64671336       2.94767417      -0.47094156       0.02442486       0.95959974       0.02356862      -0.11310606      -0.05844276
H       11.46950270      16.51668573       4.69073628      -0.24531133      -0.24029221      -0.47222982      -0.07752605      -0.32283545       0.15918061
Pb      -0.11941025      13.27360844       6.83146940       0.10876431       0.38158088       0.00690948      -0.60135448      -0.96092771      -3.47487206
Pb       6.65756502      12.72985685       6.84583333       0.13757530      -0.09146376       0.00153235      -1.84900966       0.97951855      -1.92414568
Pb      -0.04305244      13.07216894       0.26493224       0.20505927      -0.02345029      -0.02442086       1.86673906      -1.02480891      -0.93906194
Pb       6.66953786      13.32231258       0.42915584      -0.04735387      -0.10903464      -0.22082145      -4.83049117      -1.31063909       3.87636214
I        3.09413743      13.85801518       6.92449871       0.27746946       0.08237614       0.02288396       1.87982761       0.15310957       1.92431535
I       10.02942901      12.40197110       6.91464047      -0.22400270       0.25140403      -0.35385889      -0.54481648      -0.98632402      -1.97486326
I        6.75431791       9.54450861       6.49247936       0.01840834       0.06503601       0.09137466       0.17824848      -0.65456699      -1.39373313
I        7.65990830      16.63891020       6.81665410      -0.22525827       0.04338440       0.09452911      -1.76832519       0.09880964       0.75420425
I        9.75501867      13.21892049       0.13567730       0.06915920      -0.25974927       0.05965394      -1.13067604      -0.15445015       2.27585175
I        3.77713587      13.37373985      13.10986765      -0.32132446       0.08667201      -0.04568308      -2.16648719      -1.10972719      -0.03484846
I        6.77309191      16.99486867      14.12924847       0.04158108      -0.06989287      -0.05317732       0.39979608      -0.22520519       0.45752985
I        6.47051665       9.74266282       0.39346633       0.11528317      -0.14774491       0.03659353      -6.95140734       2.88475886       0.89822759
I       12.88072684      13.92308168      10.14174255       0.09384326       0.00643493      -0.00910434       0.03988849       4.75720696      -1.68188942
I        0.14909854      13.72586577       3.72569457      -0.08357125      -0.10897457      -0.14312635      -0.52221273       0.03836432       0.59350805
I        6.67050197      12.34680164       3.72273584       0.06743983       0.03837965      -0.08654317      -2.06515550      -0.87513437       1.08242224
I        6.62760411      13.32180104      10.10351526       0.02953178      -0.02098565      -0.05717104       1.29890966       0.27355662      -1.11390376
N       10.74189318      11.48912050      17.39123301      -0.55086961      -1.29764164       1.73569429       0.56245895      -0.53858685      -0.24764360
C       11.79489491      10.45938152      17.73616312      -1.69635624      -0.28117889       0.17549428      -1.28954648       0.21868000       0.48020345
H       12.75053949      10.90407370      17.72588794       1.34979653       0.64495907       0.25311377      -0.15156034       0.17870024      -0.17089663
H       11.76643326       9.69385755      16.97311975      -0.12907141      -0.49630544      -0.26399524       0.23156354       0.11735410      -0.12150058
H       11.47637074      10.03681394      18.71859957       0.58402532       0.16374042      -0.53858554       0.02825800      -0.16117862       0.00161301
C        9.39605446      10.80682096      17.71951690       0.15885568       1.08692006      -0.77157186       0.45982599       0.48461239       0.53935677
H        9.48452810      10.55775929      18.74730125      -0.28569628       0.21575638       1.46203660       0.21653597       0.05253403      -0.10599818
H        9.31430285       9.81971097      17.29289423       0.24761718      -0.34300606      -1.01543282       0.13837915      -0.11874246      -0.11905525
H        8.47190095      11.38525335      17.48432512       0.78070281      -0.01482307       0.09402468      -0.03031144       0.28529999      -0.01368527
H       10.84515681      11.84722232      16.46084441      -0.10202129       0.15585017      -1.37222424      -0.25334680       0.01880963      -0.14745761
H       10.92676433      12.29798962      18.02639488      -0.46348936       0.00063461       0.05025995       0.04458557      -0.06555810       0.22455879
N        3.58667785      16.09459498      22.81134662       1.60699673       1.23337667      -0.25421540      -0.30142467       0.54105132       0.59286307
C        3.03023324      15.33482442      23.94909379      -0.08055758      -0.15727448       1.09771124       0.17804922       0.29618539      -0.47771757
H        2.21088169      15.93608067      24.39707074       0.05895532      -0.26069465      -0.46619776      -0.13950229      -0.15289694       0.07642937
H        3.76273031      15.24436663      24.77790457       0.06473624      -0.10175789      -0.54572717      -0.09172780      -0.05807321       0.17545539
H        2.66212186      14.33587042      23.62261616       0.21755548       0.56505655       0.16204906      -0.07098676       0.00765229       0.16161380
C        3.77679678      17.58031728      23.07131727       1.38054532       0.18857062       1.08182049      -0.58022115       0.67046889      -0.10217245
H        4.44823046      17.69923968      23.96721608      -0.71946141      -0.28689043      -0.36381239      -0.06132140      -0.05061289      -0.06816089
H        2.83939921      18.11517724      23.24690332      -0.21719544      -0.28141434      -0.05416062      -0.25357091       0.05254382       0.05347738
H        4.36594782      18.08327113      22.28876790      -0.39742211      -0.33450763      -0.31426909       0.03382712       0.11526448      -0.04976304
H        2.90809392      16.03396033      22.07792040      -0.87280745      -0.23946365      -1.17974263      -0.09964408      -0.07138413      -0.25152972
H        4.51617331      15.76775951      22.38207786      -1.04841158      -0.19854727       0.77169814       0.06081791       0.14020111      -0.09516225
N        4.14044817       9.65507113      23.35727167      -0.80286367       0.30410432      -1.54990662      -1.32317958      -0.35919941      -0.46137930
C        3.00387243       9.34988327      22.31404802       1.54816686       1.50062871      -0.00849599      -0.65097693       0.10341439       0.21090416
H        2.74103599      10.31608072      21.83962940       0.46176147      -0.24678252      -0.02441474       0.02084452       0.04551043      -0.00905522
H        2.15535885       9.12777655      22.90179481      -1.04285838      -0.91654204       0.68485188      -0.05681065       0.08165631      -0.29097617
H        3.29456256       8.60166213      21.53758140      -0.07346861       0.36232788       0.81046941      -0.04591913       0.04560501      -0.18897769
C        3.83687756      10.79825052      24.30992593      -0.10802567       1.11835531      -0.63541454       0.43633242       0.91244745      -0.29918520
H        3.44887480      11.74035734      23.77181306       0.49714879      -1.47093917       0.11340567       0.03494677      -0.24846303      -0.10391701
H        4.82422861      11.14299697      24.74607466      -1.18024970      -0.58335658       0.21941797       0.03087805       0.09273935      -0.25229474
H        2.98297575      10.49483808      24.98032963       1.11175609       0.06303649      -0.18018062      -0.06779752      -0.14382134       0.18109708
H        5.04358357       9.73980892      22.85640747      -0.05893868       0.88257434      -0.46071861       0.09551944       0.22489106      -0.08840729
H        4.37082334       8.80769815      23.84645834      -0.38215951      -1.02580811       1.06454388      -0.01946291      -0.00916940      -0.23851014
N        8.65521788      16.97570851      17.53833180       0.50313870      -2.14083302      -1.23795108      -0.90258498       0.38952176       0.04386684
C        9.14240440      15.58238721      17.07581259      -2.17672639      -0.51346174      -0.63247574      -0.12350056       0.04400811      -0.84927025
H        8.43706939      14.82689242      17.54222367       0.76204250       0.68919838      -0.47982966       0.10855928       0.18859545       0.46584424
H       10.11394985      15.47012737      17.43265286       1.84323764      -0.24830523       0.99016798       0.21258271      -0.03180365       0.07523591
H        9.19904147      15.39355173      15.95015656      -0.45364197       0.81820976       1.11122556      -0.11079291       0.25063707       0.09485387
C        9.55222133      18.03697733      17.14997196       1.12401836       0.09306532      -0.42476001       0.67548878       0.06756557      -0.10823705
H        9.03320472      18.93493227      17.34992665      -0.47963245       1.40311622       0.17795375      -0.00852637      -0.25877456       0.21770976
H        9.74978836      17.97654482      16.07414004       0.21637424      -0.11240080       0.11495877       0.25012861       0.11962209       0.07736148
H       10.45280466      18.01317621      17.78171866       0.02021883      -0.18947343      -0.34040010      -0.32237622      -0.26579817       0.08300866
H        8.55703515      16.99300790      18.56690754      -0.62715601      -0.23224748       0.20717193      -0.00511431       0.32137731      -0.01254560
H        7.75944587      17.08461850      17.05683078      -0.52236818       0.34055103       0.26098479       0.04920150      -0.04651573       0.12491621
Pb      -0.07700122      13.25852642      20.03679119       0.19884488       0.02053078       0.29798185       1.22640337      -1.61529419      -1.20801435
Pb       6.34069703      13.37934633      19.61489766      -0.07457500      -0.32879668       0.09424047      -2.38348297      -3.53103009       4.00042621
Pb      -0.41907673      13.46908103      13.81114861       0.15181120      -0.20081860      -0.22391796      -1.41815380      -2.33251194       0.89004850
Pb       6.70563806      12.96430440      13.47602789       0.14976399       0.18288042      -0.08724095      -3.89530262       1.48051500       2.93572751
I        3.25433551      13.28441854      20.21716875       0.23456124      -0.04759258       0.04868303       3.39451027      -0.70659896       2.95094281
I       10.29730238      13.52860374      20.41212940       0.21257523       0.01891489       0.00331681      -0.96228476       1.30695196       2.61860788
I        6.48530725      10.05224018      20.21019960      -0.06735458      -0.02219367       0.13180326       1.48792214      -0.80456733       0.54114725
I        6.69852125      16.28571193      20.26138345      -0.04930382       0.19829405       0.20003603      -2.99038094       3.83890615       1.13397178
I       10.26424708      13.08324946      13.67153789      -0.05877141      -0.08781506       0.26108886       0.89703375      -0.16964251      -1.13817533
I        3.22278471      13.30158085      27.30190745       0.11778770       0.03425597       0.10604986       2.89413354      -1.00967015      -2.60228058
I        7.10217132      16.69752567      26.94697677      -0.08848190       0.20666199       0.09802486       3.14586199      -1.69738151       2.77217816
I        6.35252867       9.92197519      13.52773468       0.17482644       0.05612043       0.01429638      -1.58230058      -4.54682911       1.93773386
I       13.48819028      13.58413499      23.76314658       0.09466124       0.12022542      -0.07449350      -1.02517609       0.44688746      -2.22292683
I        0.02808255      13.70331340      17.02177274      -0.06956197      -0.03640028      -0.39691875       1.37838946       1.06187701       3.15942801
I        5.80608448      13.03822011      16.51882367       0.24790184       0.00043836       0.20102360      -2.52936412      -3.77566288      -0.55933637
I        6.45719228      13.62162985      23.84439252       0.17907709      -0.05842998       0.07970568      -0.49078522      -1.07776631       0.53926808
N       15.62852346      15.30407369       4.58942799      -0.77292630       1.55539584      -1.95713472       0.75409711       0.16334986       0.29516702
C       16.95059713      14.96838293       4.00712582       0.41559467       0.97308476       0.00443649       0.30362784      -0.28369511      -0.00454058
H       16.94767953      13.89445086       3.88104273       0.52206015      -0.40247851      -0.05728954      -0.01115829      -0.08795026       0.21226380
H       17.73003348      15.37481967       4.72932161      -0.58103666      -0.63778062      -0.87537151       0.18896991      -0.03319619      -0.08004266
H       17.03821138      15.46676964       3.00090097      -0.01041528      -0.35051901       0.81569532       0.24817630      -0.21115675      -0.00078458
C       15.50234534      16.79735612       4.59891381       0.30883272       0.47392318       0.22688585      -0.87968709       0.54543432      -0.46197829
H       16.27781911      17.26121040       5.27616335      -0.37270889      -0.42499390      -0.98115881      -0.03197913       0.02724957       0.43581065
H       14.54785452      17.10781225       4.98043541      -0.80016159      -0.14559652       0.62159798      -0.11317015       0.01371360      -0.08547916
H       15.45637240      17.18437458       3.55787522       0.77518462      -0.23305444       0.33845570      -0.00458704      -0.23594729       0.08235807
H       15.59603485      14.93163142       5.53839174      -0.42435480      -0.46958473       0.55500907       0.08825286       0.13672769       0.13285943
H       14.80318264      14.93567729       3.93714560       1.06501149      -0.12770834       1.32978892       0.19848785      -0.21815976      -0.10731465
N       10.36536294      23.26166323      11.21456567       0.92430040      -0.66767240      -0.68805648       0.17298513      -0.43549285       0.43511963
C       11.69853586      23.36154857      10.48585426      -1.13449528       0.41889423      -0.03292775       0.77224461      -0.55828361      -0.30026996
H       11.81070221      22.43659700       9.94837305       0.43412155      -0.51168663      -0.25906000       0.03962977      -0.20023936      -0.21652604
H       12.50027817      23.61206794      11.17980036       0.06376778      -0.28281452       0.24502334      -0.03312299       0.04133738       0.08036874
H       11.59673114      24.21206479       9.79832136       0.03327957      -0.11269616      -0.16861243       0.08237665      -0.05170756       0.00425650
C        9.19499919      22.95942728      10.35106997       2.21550450       0.79761918      -2.87277824       0.93533712      -0.85058760       0.54674834
H        8.33425723      22.81461036      10.95472959      -1.01994679      -0.25205017       0.32545047       0.05449932       0.00726972      -0.11591132
H        9.55061059      22.11511852       9.69590934      -0.78783926       0.10489811       0.79392754      -0.11837715       0.20102432      -0.20419302
H        9.13335345      23.80977985       9.56819866      -0.33735474      -0.86295101       1.31627259       0.16040205      -0.01469420      -0.18611452
H       10.27129766      24.18608888      11.58257183      -0.55638372       1.21995497       1.24545811       0.25904593      -0.00506214      -0.04675520
H       10.40953420      22.53569482      11.96709997       0.05507781       0.11338456       0.17760533       0.11958975       0.21759350      -0.17949165
N       10.75344655      16.68180879      11.17822034       0.28582176      -2.54281519       1.33935946      -0.82441870      -0.03297212       0.15442680
C       10.47216643      17.79723736      10.32699944       0.99930990       0.99786514      -1.21333813      -0.22664749       0.41863479      -0.10066323
H        9.41110183      17.97758554      10.39174676      -0.49319586       0.42379065      -0.19378514       0.05635636      -0.00460481       0.11295557
H       10.81114590      17.50151865       9.30066610      -0.53026246       0.45998560       0.43639089       0.14848320      -0.23124909      -0.06448049
H       11.08182813      18.65900782      10.66392949      -0.34471259      -0.15025076      -0.19651709      -0.16813768       0.00332677      -0.36101672
C        9.63484306      15.69215875      11.15495835      -0.62171675       0.28657847      -0.95829540      -0.81299486      -0.41446290       0.02226762
H        9.96707324      14.78121845      11.59315923       0.59703325      -1.03125757       0.16115311      -0.14868386      -0.04246681      -0.04694998
H        9.43248094      15.53948885      10.06285591      -0.41130282       0.04797905       0.94567241      -0.33618380      -0.17097561       0.06431688
H        8.76372478      15.94642179      11.80214864       0.35247807       0.58561653      -0.75643529       0.00756220       0.30034656      -0.13160548
H       10.87558831      16.94793776      12.19376064       0.65398050      -0.02371779      -0.52913123      -0.16623186      -0.18006305       0.01236120
H       11.60400846      16.08488264      10.83770186      -0.71122400       1.09531623       0.64887307      -0.31606629       0.05082353       0.05182495
N       16.38997350      24.05922059       4.37288950       0.56370159       0.00386958      -0.87170836       0.09999747       0.06793117       0.79009232
C       17.82638247      23.63981195       4.16152591      -1.26588026      -0.38770909      -0.93925738      -0.16777957       0.92101151      -0.84943916
H       17.81148835      22.67115452       3.61900450       0.07167427       0.37193436       0.39694787      -0.13912339      -0.19517590      -0.13869834
H       18.34912008      23.59511575       5.11228311      -0.19689670      -0.23700881       0.41922108       0.06683566       0.08979421      -0.05985024
H       18.32148449      24.37651422       3.55170836       0.05712000       0.48338409      -0.36689113       0.16399124       0.07601245      -0.12949235
C       15.64421792      24.52975152       3.11232986       0.41159184      -0.58996595       1.24114212      -1.03178819       0.23964725      -0.23905497
H       14.60255601      24.67660521       3.45783737       0.24610612      -0.07158819      -0.52308180       0.14697070      -0.07681388      -0.05013628
H       15.77059478      23.73180793       2.37007766      -0.18488995       0.20192883      -0.04933575      -0.07398977      -0.01457439       0.23029134
H       16.09524815      25.48012577       2.80391841      -0.00797671      -0.12832978      -0.13614294       0.07721740      -0.04120095      -0.10690920
H       16.32869444      24.83411783       5.05597579       0.26595121       0.40761084       0.32384425      -0.04058723      -0.25743069       0.01142197
H       15.87965881      23.28752207       4.83178716      -0.29225949      -0.22080146      -0.02833329       0.06377251       0.18683430       0.13314859
Pb       6.92174154      20.07677482       6.76261898       0.00046729      -0.05266220       0.34029565      -0.59268670       0.26186443      -0.06998349
Pb      13.43670017      20.03055792       6.92629955      -0.00354238       0.01056693      -0.08059858       1.50678052      -1.93171920      -1.15167662
Pb       6.64327260      19.70961525       0.44403446       0.02743182       0.05443358      -0.10575854      -3.63879548      -3.82237679      -2.81504138
Pb      13.41120052      19.94857865       0.14908801      -0.06776358       0.18276282       0.06753115       0.37203029       1.47735839       0.65690402
I       10.03990996      20.53823319       7.05503993       0.00383827      -0.08154528       0.00891596      -0.88900497      -3.07449668      -2.63455898
I       16.71796622      20.43293176       6.73363344       0.00713480      -0.15550834       0.01687426       2.11574300       1.14408382      -0.25961002
I       12.58724352      16.63983301       6.99437356       0.05107743      -0.02056964      -0.09543019      -1.05880978      -2.37788998      -1.85311832
I       13.42390208      23.04388611       5.97984768       0.05376933       0.13556971       0.23303811       1.17019063      -0.98597972       1.89071048
I       16.60766125      19.95549612       0.57767105       0.06874428       0.01632092      -0.10851165      -1.23893867       2.04583586      -0.10443283
I       10.21260952      20.60293913      13.56050959       0.10544790      -0.06029367      -0.01034158       1.84001533       0.37839814      -1.22047182
I       14.04745218      23.71420433      14.04831645       0.02255034      -0.04951710      -0.12380063      -2.50438791       0.80073657      -0.38558375
I       12.72785337      16.68090827       0.46656945       0.28360572       0.01738127       0.19751584      -1.30728797      -0.37772197       1.69679222
I       19.40849632      20.24254384      10.05724493       0.08893934       0.15650016       0.19821867       0.52011172       1.54809258       0.90615042
I        6.56099785      19.95819203       3.76204879       0.00754397      -0.03298551      -0.36517583       1.09153776      -1.66129208      -1.16708244
I       13.37141357      20.21769243       3.31430625      -0.07606815      -0.02053956      -0.06540667      -0.24335820       2.24387133      -2.49546061
I       13.67958701      19.84149502      10.09010325       0.07735345       0.08182443       0.09550545      -1.60973068       0.50396144       0.89565970
N       17.07899386      17.67495610      17.01675542      -0.30604394      -1.80882753       1.90066738       0.21057352       0.62441096      -0.33668560
C       18.06544894      16.55363043      16.89152728      -0.64974252      -0.29748652      -0.36316328       0.34882534      -0.41910823      -0.19919685
H       18.88710737      16.92112459      16.30758036       0.67572634       0.18838518      -0.33728106      -0.37260027       0.01147479       0.11226635
H       17.59056561      15.75574482      16.32006763      -0.14368870      -0.19424097       0.02671787      -0.20363345       0.08224950      -0.13973716
H       18.42402417      16.17847770      17.86127904      -0.26913787       0.32755998       0.00093985       0.00834177       0.02320050       0.12063650
C       16.03643080      17.39630696      18.13583667       0.91104402       2.40315606      -0.54688219      -0.34563468       0.15950539       0.21316440
H       15.31034898      18.25775028      18.08326347       0.53443679      -0.81141017       0.18924711      -0.13982704       0.42508567       0.15832059
H       16.54770903      17.36578961      19.13055019      -0.26955030      -0.10770486      -0.77152047      -0.37147950      -0.03446038      -0.14669967
H       15.58107126      16.49273915      17.83545132      -0.68149581      -1.25422169      -0.10615019       0.07668182      -0.21740227      -0.06662559
H       16.60984001      17.90873442      16.14000676      -0.21089286       0.05286845      -0.64168834      -0.06326708       0.31767628       0.53977167
H       17.65608839      18.45707663      17.23546482       0.36101817       1.50100292       0.56789086       0.12433581      -0.02897354      -0.01209208
Cs      10.38284176      22.91492560      23.28689029      -0.11084413       0.17870607       0.04707143      -2.66506744      -1.72926923       0.71518511
N       10.30781327      16.91470602      23.10916356       2.16541676       1.82675333      -2.58211320       0.77854234      -1.01001408      -0.93931783
C        9.72185054      18.23793744      22.53062679       1.24721560      -1.29654504      -0.80343812       0.44147158       0.84807204       0.42652285
H        9.99992594      19.04878605      23.17717879       0.40623485       0.46185773       0.46652481       0.09326138       0.03008959      -0.11326007
H        8.65539327      18.12266475      22.54392215      -0.72631780      -0.07428958      -0.33690246       0.06889861       0.11961280       0.08126901
H       10.19320001      18.34405618      21.49725042      -0.83733523      -0.00976391       1.15230270      -0.10366055       0.02480182      -0.10242625
C       10.11530428      16.69740317      24.53834193       0.11552782      -0.01955232       0.66915461      -0.18524835      -0.75657982       0.36958777
H        9.39826727      17.42809411      24.91986713      -0.24289616      -0.00463891      -0.19118219      -0.16476759       0.17774560       0.04650483