800
Lattice="26.597093354764876 0.10393410406618253 0.1365620459370987 0.044351039410880644 26.917662704305297 0.054212699255674006 0.16039576489002175 -0.06786145318572422 26.270563397123748" Properties=species:S:1:pos:R:3:forces:R:3:momenta:R:3 energy=-3427.3193359375 stress="0.0015454512322321532 0.00047810413525439793 0.00023678358411416411 0.00047810413525439793 0.0018926660995930433 9.593925642548128e-05 0.00023678358411416411 9.593925642548128e-05 0.000703474332112819" pbc="T T T"
N        9.65983214      11.33355314       3.82459917       0.03242746      -0.35308934      -1.33048889       0.60617721      -1.51640676      -0.81619008
C        8.46730479      10.44516060       3.69692028       0.99517637      -1.61344145      -2.72854500       0.71353193       0.57409095      -0.08697032
H        8.35089611      10.15701636       2.55747779       0.30267843       0.51052035       1.91922056      -0.13220752       0.20846360       0.10518023
H        7.58694601      10.93099129       3.98217120      -1.43209430       1.05576268       0.57477354       0.08812822       0.10363651      -0.11618052
H        8.55701509       9.47958782       4.24315331       0.37001086       0.61482147       0.00547747       0.30777440       0.05209934      -0.04207694
C       10.92056332      10.53303910       3.67140288      -0.17666792       1.04534840       2.62665445       0.46567154       0.10075147       0.28969324
H       10.89358722       9.62471400       4.27326538      -0.23412987      -0.12395916      -0.00301969       0.03016216       0.07990068      -0.12830500
H       11.70668672      11.17535407       4.06027652       0.39538240       0.00116009      -0.03787495      -0.13495281      -0.11398250      -0.10149558
H       11.07804778      10.36940932       2.66826119       0.37731673      -0.69574904      -2.45568201      -0.15935729      -0.02592898      -0.32014278
H        9.70206593      11.92669017       4.68437545      -0.15770358      -0.20145392       0.34173988       0.12757274       0.14656945      -0.09831050
H        9.69616751      12.01593548       3.00505901      -0.31446276      -0.28581405       0.64740360       0.04710397       0.03247001       0.14177470
Cs       3.40041075      16.53397356      10.20165658       0.06890914       0.02061592       0.01117574      -2.15753196      -0.05259029       0.28985269
N        4.73798004       9.80876534       9.48422885      -1.18030046       0.61000631      -1.76959178      -0.54842696       0.21183698       0.22287548
C        3.46797612       9.27358895       8.91832541      -1.21006328      -1.15677146       0.93880587       0.81553203      -0.27827686       0.52020495
H        2.75035139       8.85026149       9.72078726       1.25545162       0.75725685      -0.71300883       0.06012726      -0.07700207       0.07753319
H        3.67223130       8.40186777       8.24224396      -0.04147193       0.90057333       0.18465039       0.12494822       0.06254544       0.05107432
H        2.95642758      10.13487686       8.44369806       0.15668855      -0.52522476      -0.14835823      -0.28745656       0.24268053       0.11010178
C        4.45304227      10.92921601      10.38700532       0.30780684      -0.24923437       0.80786272       0.98704415       1.00511374       0.44978474
H        3.96152800      10.52316025      11.25589516      -0.29431595      -0.51585258       0.59710523      -0.10043086      -0.14812920       0.20291368
H        3.73305162      11.66654641      10.03101048       0.27274055       0.07542778      -0.83231199      -0.21002487       0.01944818      -0.19341080
H        5.38999525      11.34317482      10.75234749       0.13316176       0.41082147      -0.14971457      -0.11771974      -0.08580766      -0.22192993
H        5.26704488      10.10698338       8.57402057       0.02994183       0.03863708       0.98589701      -0.06746574      -0.06547148       0.05506844
H        5.32932665       9.07137283       9.91829924       0.13576797      -0.22172093       0.28246789       0.03595664       0.16528955       0.05786462
Cs      10.34861690      16.61660189       3.55043803      -0.07694391       0.09909374       0.02853624       1.59803334      -1.68219073       1.58946625
Pb       0.71241691      13.33803247       6.43428938       0.15003038       0.16420605       0.13248800       2.21503431       1.10588727       0.57647993
Pb       7.06405980      13.52657610       6.83996461      -0.18399399      -0.09795147      -0.12277129       4.18409785       6.24897204       5.33000121
Pb       0.19610248      13.54052346       0.13458080      -0.26954544      -0.09450678      -0.15813464      -2.25206106       2.16419315       1.30335691
Pb       6.73520799      13.27409075       0.53886830       0.09545829       0.64359285       0.05698805       0.21788841      -2.13625423       0.41524298
I        3.98634141      14.00276101       7.43727289      -0.19393242      -0.10125542      -0.18060889      -2.46737456       2.15507743      -2.20996590
I       10.56403714      13.09934458       6.68761833      -0.17403241       0.08104093       0.08424709       2.24956775      -0.76737154      -2.73972132
I        6.37537847      10.04664417       6.54222911       0.03241152       0.11822253      -0.00189051       0.37830966      -0.17144560      -2.10451264
I        7.20762725      16.61919499       6.44344578       0.15399175       0.15641136       0.00915216      -2.17157230       0.25578342      -0.82234443
I       10.16299144      13.77590986       0.92578210      -0.15603778      -0.06671074       0.02680795      -1.81117682      -0.93950986      -0.77780175
I        3.13433087      13.49656294      12.84971731       0.15177121      -0.00334066      -0.00332881      -2.05369448      -1.78377028      -1.85317438
I        5.93891992      16.61037216      13.30151576       0.24248849       0.02810921      -0.09265814      -1.62332637      -0.86182223       2.41162658
I        6.42550378      10.37259240       0.00538981      -0.06747809      -0.21490043       0.02608734       1.73478853       1.62979811       2.56218695
I       13.08734512      12.88575858      10.27483108       0.03598606       0.04284962      -0.26738448      -2.55359685       1.67134936      -2.33899607
I        0.12809671      14.26513445       3.24131724       0.23009356      -0.14710313       0.07110374       1.96327546      -0.07325028      -0.14622292
I        6.52682136      14.13826718       3.65152449      -0.02225147      -0.21748540      -0.27183973       1.68264885       2.05831427       1.66019168
I        7.50510621      13.37836481       9.86782858       0.15892163       0.00977486       0.08660640      -2.06086366       3.74080459       1.36200806
Cs       9.89749554      10.77257643      16.55197243       0.06596013      -0.10988975      -0.04635630      -1.18615172       1.79008939      -0.42038488
N        3.13200941      16.06179989      23.28324494       0.83584851       0.39360676       0.14367306      -0.36153624      -0.20109907       0.47627022
C        2.22964127      16.99925520      23.97667274       0.61585083      -0.22449528       0.24994833      -0.28915006      -0.35461789       0.24754712
H        1.69575956      17.43197078      23.15962247      -0.90146658       0.89721668      -0.16683557      -0.08219543       0.05692394       0.29974857
H        2.92032380      17.67794722      24.45908185      -0.10090665       0.64338802       0.17118426      -0.14324480       0.06490857      -0.03811093
H        1.60420850      16.52649228      24.75124180      -0.02157362      -0.19015759      -0.44339742       0.01788015      -0.18291908       0.12776663
C        4.30837977      16.75694077      22.59977751      -0.80503364      -0.83974814      -1.87321251      -1.36445948       0.54723307      -0.16450024
H        4.64411303      17.63544301      23.16347180       0.10702099      -0.34692535       0.28613240       0.15390564       0.27886684       0.21093887
H        3.78252873      17.14640164      21.65631133       1.26176062      -0.35907882       0.79138446       0.04303015       0.04032722      -0.21875086
H        5.12655246      15.95204685      22.38168679      -1.21092847       1.53241777       0.27799271      -0.02569193      -0.16761424      -0.12494933
H        2.57720229      15.56902185      22.57429767       0.20650180      -0.65116463       0.08125609       0.34419961       0.05389608      -0.01497609
H        3.53131501      15.45458772      23.99862317       0.01666719      -0.97512863       0.32796504      -0.13156404       0.03656547      -0.19635496
N        3.60146213      10.71098141      22.41204969       0.84216278      -2.19438171      -0.49023857      -0.26277959      -0.19889096      -0.28983915
C        3.40591248       9.63868126      23.44565059      -1.05581497       0.82934642       0.66122739       0.06198708      -1.15718227       0.08903847
H        3.66213617       8.66654128      23.09126376       0.23691169      -0.82327332      -0.64977681       0.04027771       0.10553925      -0.24762245
H        2.36681232       9.62409193      23.76734179      -0.32851585       0.04430714      -0.06655392       0.12570370      -0.31003871      -0.05320200
H        3.98230328       9.84173858      24.34146801       0.46828033       0.33260299       0.02238759      -0.07772937       0.26910228      -0.15763144
C        4.38922832      11.83071483      22.93384243       1.09160653       0.25351619       1.02404105       0.06604368      -0.63826453       0.19885010
H        4.04911713      12.18261686      23.96267805       0.05004025      -0.71593983      -1.00418764       0.01372415       0.03581506       0.14121760
H        4.28040686      12.63456989      22.25090416      -0.20699692       1.05394140      -0.73464860      -0.08569412      -0.09910604      -0.03858347
H        5.49762187      11.61078259      22.95794183      -0.97177936      -0.27657517       0.11068601       0.07483856      -0.22686689       0.23482116
H        2.71101896      11.00711931      21.89238926       0.35270052      -0.19371844       0.52887353      -0.01479424      -0.23398907      -0.18410485
H        4.14703716      10.12554748      21.67136637      -0.33205841       1.54013054       0.43084368       0.15633474       0.09238996      -0.14329403
Cs      10.07043193      17.72456487      15.96916924      -0.02143772      -0.20268136       0.24578851      -0.50314774      -3.99699622      -0.29720570
Pb       0.32876879      13.72236407      19.70518900      -0.25985154      -0.18731246       0.05759932       0.30585119       0.60605480       0.09883483
Pb       6.99735667      13.86247713      20.11155802       0.20681678       0.04059620       0.03952204      -0.81446340       4.94575862       3.53065574
Pb       0.01129292      13.51627271      12.85347793       0.21699770      -0.02191905       0.07025799      -0.35121181      -1.19130112      -3.94810145
Pb       7.05133535      13.41187368      13.15112209       0.00557056       0.00787736      -0.18712469      -3.15930617      -2.17863642      -2.34658925
I        3.35763267      14.14019758      19.85560029       0.19611560       0.00516802       0.06786644       4.23817167      -1.07317054       0.17758600
I       10.30567343      13.60240549      19.48358637      -0.43592008      -0.05448930      -0.02644350       0.14051434       1.10840484       0.87135083
I        6.17225347      10.43551704      19.90090792       0.14672037       0.02671297      -0.05838614       0.50565945      -2.56960962       1.32449038
I        7.40306783      17.09463875      20.04284327      -0.03125498      -0.10952675      -0.11763283       1.65573643      -2.34165135      -0.39565161
I       10.29500012      13.11903229      13.28957317      -0.10992234       0.03594620       0.13220549      -0.70937208      -2.67418727       0.12958072
I        3.51485350      13.76544010      26.02832895       0.16064686       0.24110304       0.22095088       0.21477777      -0.57717571      -2.48404254
I        7.19524288      16.75701083      26.99847076       0.05053423       0.06721312      -0.22417419       1.33057958      -0.76681109       1.35304007
I        6.61528997      10.27072922      13.35465925       0.08783839       0.02858924      -0.02979421      -1.84943139      -0.09576979      -1.83647485
I       13.26888842      14.08221465      23.62775892      -0.16865265      -0.13402666      -0.11133224       1.24333928      -3.84626996      -1.19038946
I       -0.29255952      13.28778792      16.11284313       0.07812463       0.12345372       0.15638309      -1.58687998      -0.81919158       3.05249457
I        7.13691287      13.32993786      16.09483671      -0.00524320       0.14262975       0.58388486      -0.93463243      -0.05874579      -0.63136560
I        7.63866703      14.21976346      23.12718495      -0.04430385      -0.17943721      -0.06090837      -1.10130583      -0.55583265      -2.64880014
N       17.26320648      17.30127309       2.46280062      -0.37842195      -2.02230453       0.66380716      -0.25254962       0.17328591       0.14907884
C       15.85463275      17.56577208       3.09671874       1.41794102       1.03623455      -0.81897189       0.77030280      -0.27327267      -0.29122114
H       15.20802597      17.81958937       2.23652026      -0.04488299      -0.30769250       0.53953995       0.19558336       0.07862880      -0.36564096
H       15.92698515      18.42250046       3.79152425       0.23354680      -0.13780754      -0.39375618      -0.21499784      -0.09815753       0.23084144
H       15.56352889      16.73504829       3.70812964      -0.24170400      -0.90974695      -0.02039739      -0.03680842       0.07940517       0.22561646
C       18.42969140      17.16477988       3.42329504      -0.50524272       0.26919268       0.33685462       0.32871153       0.01855432       0.47517778
H       19.12301077      16.52510044       2.87024220       0.46136772       0.17115520       0.36170636      -0.07894008      -0.16787239       0.21987583
H       18.05221319      16.60194208       4.32233667       0.24253904       0.48253006      -0.72240960       0.20112877      -0.07102335       0.07411068
H       18.89134882      18.14431331       3.71878933      -0.58141107      -0.64255339      -0.31941845       0.07315954       0.08672060       0.26467405
H       17.40644253      17.94842154       1.67889232       0.23565978       0.54059565      -0.12723023      -0.13962240      -0.04110747      -0.08252283
H       17.35056434      16.32593005       1.99437784      -1.08867353       1.37072824       0.36324141      -0.25006740      -0.23709698       0.10094517
N        8.88795313      22.59465801       9.49484039       0.20223044       0.47310003      -0.08276945       0.09842784       0.07727088      -1.19707790
C       10.23947519      22.61137962      10.12227157      -0.39152060       1.94621875      -0.08537222       0.19971775      -0.78164196      -0.08687715
H       10.95619756      23.05485452       9.41709920      -0.02995142      -0.18688955       0.09203796      -0.03733541       0.07742210      -0.12275278
H       10.54938336      21.69629198      10.53664968       0.40137949      -1.61789412       0.09859568       0.17095736      -0.13011427      -0.06171954
H       10.13500196      23.26697257      10.98103467       0.11907866       0.40044103       0.25035829      -0.22312901      -0.04243204       0.26929936
C        8.06135358      23.81816357       9.79078637      -0.74741784       0.36568963      -0.89921927       0.39266373      -0.21987849       0.12210886
H        8.62847537      24.79335695       9.60227257      -0.59581975      -1.31927667      -0.25495839      -0.10401021       0.18535268      -0.10016310
H        7.73680049      23.81668002      10.82965435       0.51004777      -0.20640137       0.49555509       0.19494310      -0.23607378       0.02279557
H        7.05968629      23.70095693       9.25354216       1.38354049       0.44006405       0.04904755      -0.00215411      -0.05313291       0.07371896
H        8.35633702      21.79259641       9.87060871      -0.19621378      -0.43642394      -0.19542029       0.08785554      -0.05901189      -0.03066147
H        9.03975156      22.42060814       8.45483279      -0.45371491       0.03622603       0.47320128       0.14655185      -0.24582406       0.25631989
N       10.37486903      17.95614858      10.40962118      -1.41932017       0.79199343       1.09027968       0.09753414       0.79121192      -0.58977181
C       10.35878902      16.72298426      11.22250017      -1.36172453      -0.01280689       0.80991665       0.69185412       0.06237024      -0.53171828
H       10.83867648      16.92350371      12.21556286      -0.36191583      -0.21152621      -0.67798850       0.05870617      -0.22294720       0.17943352
H       10.86162343      15.97481076      10.67215437       0.94107588      -1.06214304      -0.60890751      -0.02321075      -0.22412679       0.17327587
H        9.30227269      16.35093696      11.32441620       0.65689234       0.54674853       0.15813534      -0.19346017       0.18449410      -0.03128354
C        9.67800373      17.95470907       9.11571766       1.13041807       0.42509534      -0.76873142      -0.53274094       0.12355460      -1.67034043
H       10.30107432      17.38177014       8.40229096      -0.15776967       0.09470098       0.22208753      -0.06458561       0.06955026       0.06437044
H        9.65315551      19.02103685       8.75301783      -0.35682662      -0.86732983       0.18718158       0.07033351      -0.18995082      -0.27628616
H        8.73108283      17.46579420       9.22146340      -0.88198922      -0.09106580       0.15042944      -0.09330634      -0.27132823      -0.11623197
H       11.34449874      18.17553404      10.21382996       0.86665227       0.75953031       0.24885470       0.13033463      -0.19198411      -0.33360120
H        9.92449813      18.73024044      11.06349129       1.03891489      -0.68692276      -0.85361551      -0.06207164       0.03588192       0.04162209
N       15.39290563      22.72669279       3.36845223       0.79850243      -0.97982746       0.66133351       0.25901659       0.63293021      -0.71052486
C       16.27309107      23.91535904       3.25318755      -0.60967223       0.15066814      -0.43398032      -0.91233555       0.83482033       1.13490169
H       16.80190416      23.99521554       4.18912221       0.84176108       0.01258249       0.23535690      -0.03479959      -0.22543737      -0.14687573
H       15.60491783      24.78888889       3.20346805       0.21635817       0.02773707      -0.22408699       0.01131451      -0.11385444       0.17287278
H       16.87272951      23.82158437       2.33199700       0.11344057       0.09740162       0.43838204       0.03564265       0.35391629      -0.02278151
C       16.10105931      21.38238931       3.37807717       0.95310081       0.73283671      -1.65871486      -0.89988284      -0.04312461       1.22965293
H       16.58785494      21.28333689       2.34733172      -0.54903013      -0.02517818       1.08791609      -0.22675279       0.22856227      -0.01891683
H       15.41783973      20.54002579       3.55625374      -0.03733340       0.39383142       0.06568377      -0.13347304      -0.01101561       0.00588986
H       16.90755907      21.45344800       4.12735238      -0.27957183      -0.13606262      -0.03309992      -0.06281785       0.12108649       0.26529319
H       14.68734779      22.79946975       2.64315166      -0.69360186      -0.15084755      -0.95512006      -0.26233300       0.04566978      -0.03493547
H       14.88582302      22.81863677       4.24326028      -0.59878805       0.03776360       0.74564886      -0.11254811      -0.17907325       0.13791358
Pb       6.79900956      19.67446624       6.38855470      -0.18702173      -0.03773399       0.00553209      -1.51828173       0.59073679       1.22530666
Pb      13.04889476      20.23409379       6.93792084       0.09839836      -0.01226567      -0.06697559      -0.50807977      -0.00148982      -0.41796063
Pb       6.78413218      20.15762529       0.29334115       0.07112185      -0.13189323      -0.20779956      -4.92974505       1.89740527       1.32302325
Pb      13.02148846      20.18977990       0.50306775       0.10666045       0.03019146      -0.21373729      -3.32132158       1.00134669      -3.24445794
I        9.87418953      20.88428901       6.65471330      -0.08089561      -0.05007329      -0.01546102      -1.69114266      -4.44627057      -2.59278481
I       16.49318471      20.17771669       6.64402623       0.07292180      -0.23345069       0.19298068       1.49481667       1.26452254       1.35048486
I       12.83547577      17.17487180       6.70466702      -0.04300933      -0.11816892      -0.14350206      -2.27839576      -0.09514056      -0.91571043
I       12.73216908      23.59220189       5.82320083       0.27853648       0.06536412       0.08587356       0.43739778      -3.14453863      -2.06346499
I       16.68491884      19.82313481      -0.41815312       0.13965590       0.01708913       0.19415957       1.63462545       0.83307234      -0.05540818
I       10.38879050      19.86230222      13.10616909      -0.22261663       0.28572981       0.13655112      -1.21032543      -1.25649489       2.71522002
I       13.62696248      23.00718209      13.17504038       0.26847008       0.01747050      -0.13885552       2.48528018      -0.36745200      -0.19339876
I       13.05012262      16.94798700       0.27379284      -0.14534257       0.17778597       0.11596215      -1.31741623      -0.19963422       0.91404402
I       19.75554963      20.45297915      10.20177724       0.00623221       0.04135307      -0.02934893      -0.81022220      -1.69055999       0.20354307
I        7.57341771      19.87238183       3.22056611      -0.10489247       0.03053614       0.49512776       1.29982471       3.03418622       1.00256643
I       12.19539166      20.44767083       3.63522767       0.14570601      -0.19820001      -0.13182611       2.24462255       0.40242635       1.78799319
I       13.38073704      19.95614015      10.21565522       0.13474089      -0.07906429      -0.01127113       1.81556673      -0.84298589       0.23246436
Cs      16.77222612      16.78295264      16.63621963      -0.01440727       0.01247792      -0.04596608       0.56076717      -0.38841368      -2.50552188
N       11.02928615      23.20019089      22.77194979      -0.30232253       0.44743095      -0.62088838      -1.47012473       0.87104024       0.23858812
C       10.72443363      23.58780223      24.19403043       0.18302924      -1.15833538      -0.45970266       0.54720010       0.55265638      -0.39181084
H       10.75409640      24.66161089      24.21517072      -0.63209759       0.76637741       0.06813249       0.00988652      -0.19275049       0.09610117
H       11.60621552      23.28295759      24.72528037       0.38480156      -0.37949304       0.74896317      -0.19909303       0.07415456       0.00530340
H        9.81183632      23.10241841      24.61257895       0.47202595       0.37759976      -0.55304182      -0.00773082      -0.00642578       0.15274246
C        9.90188209      23.39173687      21.81783617      -0.01059616       2.51263419       1.18548873       0.33255075       0.27121949       0.52785068
H        9.11255638      22.70294625      22.02404241      -0.75422538      -0.51211003       0.52327360       0.60250712      -0.09932847       0.03758946
H       10.23840435      23.18153429      20.81785810       0.30905391       0.32392336      -0.63607207      -0.05296774       0.12689668      -0.18710685
H        9.61369254      24.47712885      22.06304608      -0.10597439      -1.43693201      -1.03739743       0.42193452       0.04854204      -0.22837018
H       11.35311528      22.25274349      22.58594728       0.47904445      -0.76999640       0.70613467      -0.08588329      -0.60230999      -0.23893357
H       11.79516894      23.83498378      22.47582335       0.04979634      -0.23298337       0.02411249      -0.19764572       0.09893875       0.14077353
Cs      10.21876431      16.68513061      24.06377362       0.03371232       0.09366592       0.05404063       0.45152992       0.91199861       0.01806038
N       16.95767755      23.55402429      17.83539497      -0.19521576      -0.16687806       0.13871884       0.43408632      -0.33126338       0.92661365
C       17.09573105      24.66505376      16.92250091      -0.16041493       1.31399386       0.26802631       1.02218734       0.48786686      -0.24731200
H       18.15115223      24.85499530      16.72373705       0.15539488      -0.13839576      -0.30532750      -0.05102574      -0.00492861      -0.09816590
H       16.68452161      25.56845194      17.40568027       0.03323979      -0.11959311      -0.25919987      -0.07426158       0.16566893       0.09316292
H       16.51569905      24.39228663      16.04833316      -0.00827263       0.29554873      -0.55378987      -0.26420758       0.16693776       0.05455359
C       17.26681359      22.31826895      17.09683831      -1.23480419      -0.72328207       0.65698826       0.98910896       0.99673381      -0.15837627
H       16.44483806      22.15027587      16.36037818       0.60028722       0.09705351       0.18795072      -0.08295336      -0.00556066      -0.00108646
H       17.25322580      21.47084696      17.81727633       0.30859224       0.31560351      -0.45079277      -0.03844004      -0.08516939       0.15176256
H       18.21781686      22.51534693      16.63384952       0.59529688      -0.44237103      -0.44342453      -0.01311235       0.02152617       0.33893984
H       15.97194363      23.54779535      18.17923444       0.08362177      -0.23701532       0.42468185       0.13689137       0.02646299      -0.14542987
H       17.60807560      23.67744786      18.65488632      -0.05517921      -0.17151969       0.15945549      -0.32806573      -0.00785184       0.12791774
Pb       7.04841495      20.31391748      19.96491127      -0.12160046      -0.07924990       0.06570049      -2.10334836      -0.24892983      -1.36608681
Pb      13.65290610      20.00135680      19.94906494      -0.14212572       0.00386690      -0.08336275      -1.04540959       0.32931943      -1.83384073
Pb       6.54651328      20.21235530      13.12619145      -0.00984404      -0.13320842      -0.09745111       1.90675403      -2.95504242       5.76206280
Pb      14.07715253      19.89684231      13.43454475      -0.27697992      -0.04379693       0.02435164      -0.55246827      -1.30575969      -6.27376872
I       10.13875904      20.12210574      20.06883385       0.07110766      -0.00811970       0.02040870      -0.33607660      -2.41395256       2.88571535
I       16.76309524      19.25151352      19.84356652       0.01171750       0.08859035      -0.11950876       0.80302589       4.00567964       0.29342262
I       12.95114187      16.90667989      18.72023538       0.06556579      -0.01306614       0.23639911      -1.88962874      -0.67308489       1.93639627
I       14.34326507      23.23448551      20.07669558      -0.22582656       0.07576801       0.08716615      -0.13376916       2.77053141      -2.39217447
I       17.12095251      19.58465556      13.86967830      -0.03586997       0.09569003       0.02310673       1.59838833      -3.08078622      -0.51436548
I       10.09895409      20.33650462      26.50488955       0.27845183      -0.07530201      -0.20340853      -0.60877608       0.12614454      -0.60331975
I       13.88849993      23.80611370      26.78085817      -0.11497515      -0.06190266      -0.12830724      -0.24621694      -4.55085731       0.47430418
I       13.48559174      16.77527073      14.09610573       0.04401085       0.07967383      -0.03989607       1.58575182      -3.82093823       2.17132635
I       20.32702801      19.54871649      23.30823016       0.08837201       0.09313681      -0.08902381       3.10872426      -2.26936602      -0.84324458
I        6.88542584      20.13400603      16.22384238       0.16244843       0.00060827       0.17910900      -0.09152465      -3.46160670       0.18255760
I       12.91545458      20.19860175      16.87118249       0.20099120       0.07006190      -0.07322618       3.18690836      -1.17651896       0.44564283
I       13.29308859      20.25204565      23.52230049      -0.06556413       0.01239388      -0.09156646      -3.03462706      -0.22281744      -0.09442018
Cs       9.56308653      23.44695020       3.53310389       0.01277288       0.03227320      -0.01700665       1.63060072      -0.17945928      -1.31161301
N        3.22015986       3.67512286       9.03672299       0.92958378      -0.85895952      -1.23471521      -0.16581453      -0.97603790      -0.40893957
C        2.27643878       3.34983062      10.12146094      -1.81844069       1.53057360       0.36146551       0.43410167      -0.71286038      -0.02493869
H        1.26858814       3.19745266       9.65913591       0.58995077      -0.11601054       0.38585439       0.20649396       0.00966528       0.27295684
H        2.18546248       4.23902356      10.81351395       0.22157453      -0.74409888      -0.52832040      -0.16224569      -0.11473010       0.18359041
H        2.59529736       2.46739377      10.68393173       0.20155454      -0.04584528      -0.14573717      -0.09197598      -0.04872790       0.24140729
C        4.54044954       4.05761290       9.54743490       1.84940287       0.00409326       1.31713625       0.53579513       0.10376929      -0.21416541
H        4.42588879       4.88865863      10.27268921      -0.15737103      -0.28979408      -0.12404577       0.12378712      -0.13374090       0.24549365
H        5.21110695       4.45774978       8.74800833      -0.45277218      -0.58292958       0.28912745       0.00294568       0.07364737       0.07831830