400
Lattice="25.382263801886477 0.26872002301990283 -0.21316528599478002 0.2803277679349301 25.48048025997462 -0.17613087163363003 -0.1071112402222915 -0.1837865760298881 25.656072292296212" Properties=species:S:1:pos:R:3:forces:R:3:momenta:R:3 energy=-1323.84423828125 stress="0.0002829374570865184 9.28040171856992e-05 -8.768099360167979e-05 9.28040171856992e-05 0.00027127427165396506 -0.00024325595586560667 -8.768099360167979e-05 -0.00024325595586560667 0.0004276498802937567" pbc="T T T"
Cs       8.87904530       9.42149792       3.28761161       0.05145307       0.11851647      -0.08330854      -0.00391349      -1.08203703       1.87143089
Cs       3.28095476      16.28528868       9.30331237       0.00205407      -0.11122878       0.05675475       0.36779300      -3.82003225      -3.79539495
Cs       3.34440412       9.61595621       9.73475676       0.07245548       0.03586200      -0.02562729      -0.88394835       0.39507836      -2.37712163
Cs       9.77117210      15.23978191       2.88025139      -0.20034194      -0.03347157      -0.17134924      -1.36856339       1.20637832       1.03931820
Pb       0.27951534      12.95863252       6.50454412      -0.18360508      -0.25951036      -0.09385249       1.88370167      -0.22000265       2.61865129
Pb       6.34335356      12.92248013       6.00979029       0.09852390      -0.02960473       0.05029729       1.31829453       0.25150590      -3.11368180
Pb      -0.06119970      12.65459094       0.11398617      -0.01297302       0.11524478      -0.08029964       1.63241885      -3.73049783       0.16237992
Pb       6.47144340      13.28629455      -0.23477046      -0.04382063      -0.54494560       0.26724320      -0.46670641      -2.24248321      -0.06970103
I        3.32048962      13.20133921       6.58525193       0.08166096       0.21931994      -0.02622448       0.50526010       2.42847444      -1.89217221
I        9.72228584      12.86001687       6.11830675      -0.35230422      -0.09226231      -0.23042242       0.86975958      -0.00208165      -0.81799906
I        5.67848738       9.82981502       5.69078850       0.10066348      -0.14926721      -0.02432891       1.34539785       1.21951586       2.99510940
I        7.21666502      16.13651282       6.92399775       0.08736799      -0.28042744       0.06286852       0.73019666      -2.06008265      -2.71489980
I        9.53856655      12.08285392       0.35692325      -0.04642186       0.13621639       0.02164836       3.46279774      -4.62449314       2.38174935
I        3.49446437      14.08881449      12.88071629       0.10271278      -0.27161970      -0.05764670      -0.75966470      -1.06116727       0.08041029
I        7.12485992      16.18043443      11.81372869       0.33035425       0.35608731      -0.25388814       0.61301456      -0.35413808      -0.75318647
I        5.80332228       9.97439269       0.70152108       0.20238927      -0.00046057      -0.16436889      -2.47468522      -2.42103656       2.24964442
I       13.03005393      13.87305792       9.41126794      -0.13744584      -0.03378509       0.02565360       0.99622710       2.40688457       3.49877446
I        0.66569842      12.72484024       3.13935995      -0.16854033      -0.12138938      -0.02438867      -2.78520546      -1.75647198       1.21928218
I        5.93510967      14.01060804       2.91333920       0.35123461      -0.17454317       0.02175583       4.25477518      -0.50237263      -1.54116816
I        6.30522373      12.71462858       9.26107172      -0.00525193      -0.07037651       0.21096958       1.20434284      -0.51533270       2.03213199
Cs       9.72088101       9.65450075      15.70057244      -0.09825133      -0.05438800      -0.01689893      -1.58947380      -1.91137796      -0.21071270
Cs       4.05281441      15.86580148      22.28497100      -0.12993847      -0.08517925      -0.04808702       1.98460858      -0.75282788      -1.96348587
Cs       3.38809874      10.00561094      23.13170850      -0.14334407       0.05735681      -0.14471217       1.59720527       1.00168074       4.01551397
Cs       9.64470990      15.71350344      16.35365808       0.18176864       0.06915626      -0.14943648      -2.00087738      -2.11863511      -0.83754730
Pb       0.24628247      12.50698132      19.18546976      -0.10268105      -0.02861228       0.16187125       2.00987543      -5.71054678      -5.02058574
Pb       6.43446247      12.47442634      19.19975463       0.26298365       0.22464558      -0.39822051       2.44510840      -3.16731865      -0.70937766
Pb       0.55976723      12.72164428      12.73822902      -0.12956477       0.15580034       0.19233220      -0.99806038      -1.18124177       0.17526805
Pb       6.68334990      13.37228399      12.45601307      -0.26823865      -0.66544592       0.16922184      -3.00901606       1.47769609       1.37145887
I        3.44048760      13.07059183      19.24943059      -0.16152990       0.24498749       0.05092359      -3.46582952      -0.18571559       1.33821061
I       10.23220446      12.04007991      18.65272878      -0.52233509      -0.14764696      -0.07561754       0.66625522       0.60755403       3.11898252
I        5.53252032       9.79224209      18.38714527      -0.09146572      -0.43298947      -0.11421498       3.50435362      -0.39479543       0.38505255
I        7.90612511      15.51059039      19.70366446      -0.20330997       0.31028553       0.08015035      -0.28941361       2.43878606      -0.10202278
I        9.81593831      12.40690994      12.87699391      -0.18468635       0.03704468       0.10552665      -0.96683890       0.98553223      -0.71454736
I        3.20619940      13.46103825      25.33391220      -0.10949879      -0.12694483      -0.18027330      -1.72659879       3.41396816       1.24067087
I        7.23609889      15.90700815      24.55972694       0.21107331      -0.65949069      -0.15068033      -0.66698654       2.33295153      -2.40467633
I        6.02497727      10.22549663      13.03986474      -0.14091935      -0.27711564      -0.01946229      -2.01937373       0.05162696      -1.31183082
I       11.91376019      13.43120862      22.55342211       0.02446295      -0.14758534      -0.49379190       0.33511256      -1.32203285      -2.56052640
I        0.40855645      12.21269910      15.99609201       0.05914417      -0.06954585      -0.02921456      -4.28492201      -1.71438622       1.46115745
I        6.70848435      13.54827227      16.08306691      -0.12896456      -0.02873744      -0.25249507      -2.23036231       1.89943754      -3.12099338
I        6.35842724      12.20415455      22.15531837       0.06799746      -0.05109333       0.59217475      -0.86610028       0.38199713       2.01380682
Cs      15.54447985      15.50610104       3.34494089       0.05515814       0.19570147      -0.02464505       0.77992496       1.02169596       2.46419277
Cs       9.98848692      22.59643847       9.04293964       0.19037864      -0.19629761       0.08654934       2.27730195      -0.27109135       0.33289241
Cs      10.22044927      16.86904765       9.21095393       0.05844634      -0.01501109       0.03005825       2.26581365      -1.06141586       2.06700623
Cs      16.24549940      22.19000133       2.94293870      -0.14004253      -0.03239160       0.13782137       0.52543706       2.82158663       1.62172477
Pb       6.57527110      18.93144725       6.45285395      -0.18241173       0.43745583      -0.19690115       1.59892968       0.38917670      -0.12117544
Pb      13.17947781      19.28841121       6.02393918      -0.23433862       0.01670205       0.03512830       0.42641830       0.46912124      -3.27012430
Pb       6.42144519      18.66855773      -0.32945455       0.03372700       1.13077495       0.33818986      -4.72860033      -2.19566951      -2.45697428
Pb      12.67102100      19.72874998      -0.11524507       0.33184716      -0.29951074       0.02141280      -1.41365087       2.57221362      -0.10290072
I        9.92675885      20.10851839       6.13227942      -0.06959093      -0.28651028       0.14535158      -2.17537698      -0.37985181       1.53086053
I       16.14587616      18.80946419       5.63952684       0.28122747      -0.13615512       0.00998087      -0.78241404      -3.19904991      -0.05983627
I       12.13154042      16.16861974       5.36100810       0.21292538       0.03957336       0.22334296      -1.84112640      -1.82078816      -1.18657964
I       13.98399827      22.44988166       6.29135828      -0.01971818       0.15847271      -0.09692535       4.06188589      -1.84316682      -0.94002625
I       16.20739246      19.06971168      -0.53294825      -0.03504380      -0.10196188       0.06687999       0.61147689      -1.57316972      -1.51048106
I        9.82373396      20.09442290      11.94735877      -0.23028424      -0.15396157      -0.07257942       1.51980436      -1.20990085      -1.20885020
I       13.74884387      22.21443670      12.58036328       0.19378846       0.48937381       0.01387453       1.38618683       0.86626386       1.03194828
I       12.55906896      16.17570562       0.23221165      -0.04731949       0.17433117       0.09933739      -0.25904977      -0.11200738       0.78256815
I       18.76341882      19.39584767       9.32265014       0.02965985       0.10934161      -0.12493316       0.27421303       0.68976066      -1.01608308
I        7.05861675      18.28963355       2.70252529       0.05168185       0.09071958       0.23903884       2.70218877      -0.38893929      -1.06845289
I       12.98303701      19.91962181       3.01557223      -0.03559856       0.04356465      -0.25532210       2.65819939       2.42340320      -0.83507126
I       13.34967036      19.53446657       9.16948680       0.01599070      -0.17186228       0.25271712       0.48884901      -1.34678647       0.77670907
Cs      15.59966559      15.88290519      15.80132879       0.20675392      -0.03971691      -0.02230929      -0.35340430       1.24977527      -2.18793116
N       10.08571108      22.69498407      21.04725091       0.83364679      -0.00628260       0.28803473       0.47448370      -1.24494091       0.98558235
C       10.83731764      23.41583943      22.18175125      -0.63532632      -0.80548371       0.13781761       0.39594437       0.00492339      -0.15617121
H       10.38969760      24.42250448      22.30795844       0.17548191      -0.33328670      -0.23412106       0.04896028       0.20643024       0.12095062
H       11.92904001      23.47170239      21.89789877      -0.98129674      -0.15160105       0.46178087      -0.20867203       0.03582964      -0.08450252
H       10.56424015      22.82585641      23.11047584       0.78833804       0.51265239      -0.84798330      -0.00059113       0.15050751      -0.21835630
C        8.71123658      22.21873288      21.44348531       1.35719706      -0.87307277       0.31913647      -0.77108674       0.12469569      -0.45106945
H        8.84072762      21.42011471      22.22521797      -0.13046891       0.78766829      -0.43970664       0.01894314      -0.07211833       0.11168659
H        8.32616795      21.75881010      20.55224591      -0.57175280      -0.34696115      -0.48375247       0.08583264      -0.00475964       0.00093017
H        8.08594507      23.03639362      21.76333353      -0.06841781       0.47695651       0.28632010       0.10022377       0.03572456       0.01452727
H       10.64356263      21.81451646      20.74716580      -0.74395871       1.37970838       0.13998322       0.10146222       0.03513087       0.11987505
H       10.02214061      23.38652777      20.20737799       0.04653397      -0.77278387       0.61773182      -0.14285264      -0.22444779       0.06528485
Cs      10.04759197      16.50144024      22.61744586       0.26538193       0.24054651      -0.16122978       3.02066097      -3.19978178       0.22844614
Cs      16.21332424      22.21934075      15.72052609      -0.14312458       0.03653855      -0.07351012       1.85134587       1.03233105      -2.17429940
Pb       6.90472314      18.58452141      19.19417513      -0.04488888       0.03830572      -0.13743248      -1.98259437       0.24697538      -1.05389654
Pb      12.95265983      19.41238099      19.12101398      -0.16454994       0.17370494      -0.01286855      -2.29629676      -0.94081645       0.27671434
Pb       6.69205944      19.19240024      12.34466801      -0.03892229       0.18673282       0.18416706      -0.57768954      -2.20497092       1.66062107
Pb      13.03484723      19.32459120      12.41203045      -0.19440273      -0.18298288       0.16331999      -0.25295576      -2.61726357       0.02155468
I        9.87449976      19.72047794      18.96422575      -0.15188144       0.07737868       0.04485473      -1.26439304       1.06208382       1.86458285
I       15.67368265      18.47606003      18.30026396       0.55860340       0.04390478       0.07484096       0.80939054      -1.90420762       0.10560466
I       12.23000892      16.20209155      19.21376545       0.11259656       0.03806177       0.00089950      -3.07172180       0.28424330      -0.29179852
I       13.58955506      22.84640117      19.44192370       0.08764817      -0.37515109      -0.01368491      -2.50368093       1.75964912      -3.51921000
I       15.93916578      18.42611873      13.06083095       0.20505977       0.13735093      -0.05533873       0.82569574       0.84725739       2.29278946
I        9.60172700      19.76347312      25.48758086      -0.17978296       0.02931003      -0.10587368       0.83153490       1.05359909       1.75555061
I       13.40534637      22.43001949      25.46339034       0.06057384       0.34925891       0.04132900      -0.20433737      -2.88616485      -0.10090789
I       12.09543661      16.29304113      12.67937508      -0.10852095      -0.28760467      -0.00550847      -0.03132202      -2.18845613       3.74071808
I       18.67716598      20.39560416      22.24025835       0.26903059      -0.23355090      -0.21768424      -1.59389353      -2.16732403       2.94618525
I        7.07988531      18.53063649      15.77829013      -0.04872809       0.07883237       0.00263789      -0.20986953       1.38360700       0.09381324
I       12.26034134      19.61517096      15.69177248       0.08649574       0.01158611       0.07929316      -2.58179930      -2.70187911      -3.10852911
I       13.11138353      18.96653004      22.34519038      -0.00792802       0.05406996      -0.17839038      -0.69933162       0.94507062       0.17230460
Cs       9.02124562      21.93756690       3.07026163      -0.02235138       0.07333707      -0.14415268       3.33723609       1.33577918      -2.98257964
Cs       4.00202076       2.95702561       9.11878904      -0.03055643       0.21066780       0.10207716      -0.11653773      -1.18896167      -0.34355365
Cs       3.69268505      22.95892469       9.75177255       0.05125653       0.03657617      -0.34216384       2.34089335      -0.64584993       4.65570972
Cs       9.07072642       2.86681850       2.81997722       0.09394390       0.05681825       0.11603226      -2.97427935       1.94572664      -0.90099134
Pb       0.20213113       0.02042434       6.50389355       0.06209867      -0.09363580      -0.36356887       3.34737497       0.63888199      -0.06908745
Pb       6.78614852      -0.03023441       6.49703994      -0.03600268      -0.03385599      -0.07850813       1.33353845      -2.05868970       1.22812253
Pb      -0.11565451      -0.15289057      -0.24909109       0.09318973       0.00003292       0.03640184       5.55254373      -2.20795957      -3.24191673
Pb       6.20137210       0.22542172      -0.14521904       0.32460398      -0.23797785      -0.00526474      -1.27385246       1.24577662       3.07193064
I        3.32372078       0.37947159       6.59270808       0.16665441      -0.13395627       0.14205305       2.31922165       1.21272769      -2.15841855
I       10.09197939      25.01485824       5.34879660      -0.03147429       0.00845621       0.02493662      -2.04922561      -2.82026406      -0.70380355
I        6.94201322      22.32723731       6.89345192      -0.29359020       0.02959089      -0.09466538      -0.99274845       0.29710694       1.47635837
I        6.78443938       3.20635344       6.38975374       0.06795246       0.16952503      -0.08354408       0.58381202       2.33831728      -1.31819056
I        9.93345930      25.37256736       0.36711884       0.01179189      -0.02357248       0.01920291       4.49869832      -2.09038222       3.36180397
I        3.44792283       0.73710503      12.16783572      -0.01209888      -0.06967920       0.03436819      -1.09765966      -1.32180377       1.82885780
I        6.70403485       2.99988640      12.11521939       0.10283555       0.48759889       0.05443853       3.06323174      -0.06192637      -1.48159256
I        6.09730020      22.30173275      -0.20837368       0.01160087       0.23855883      -0.05576380      -0.58031823      -3.33546602       1.80263223
I       12.54759118      -0.31690674       9.56064475      -0.07541271      -0.03548334       0.04434265       0.57418277       2.53846251       0.21012860
I        1.35609593      25.74703756       3.02913775      -0.16651126      -0.09360578      -0.03795329      -0.22616352       2.59235077       1.99719223
I        6.14515551       0.21889885       3.21606999      -0.01116993       0.15867780      -0.20177551      -1.12382445      -3.00369374       1.91603345
I        8.11336111      25.63644613       9.27632070      -0.24840505       0.21039166       0.14350567      -0.23902436      -2.66571331       3.40103411
Cs       8.99710199      22.19043493      15.91604535       0.09095971      -0.04176109      -0.04965534       0.42465326       1.45835528      -2.22299130
N        3.44433207       2.77090266      22.74701932       0.07421323       0.41383967      -1.24851487       0.83041033       0.04858709      -0.45866270
C        4.67375365       3.65837731      22.72403286      -0.89436796      -0.43003845      -1.57225828      -0.31964647      -0.12486536      -0.59384745
H        4.46901271       4.39971061      21.92247142       0.48436686      -0.43545913       0.20005984      -0.33032021      -0.17228283       0.16340582
H        5.56946906       3.03472294      22.60888174      -0.09813361       0.11602611      -0.39831658       0.10759744       0.18714441       0.12984409
H        4.74249190       4.16950245      23.64640649      -0.13031976       0.65316478       1.26983966       0.06190371      -0.02459962       0.05767616
C        2.20731375       3.51155657      23.07084943      -0.47927126       0.82474576      -0.66211614      -1.28562156       0.67852623      -0.36675483
H        2.15980491       3.89352821      24.07278803       0.37602493      -0.18199518       1.05326241       0.12623189      -0.18721053      -0.03060066
H        1.28232020       2.96556002      22.86589264       0.19040719      -0.39458653      -0.10566907       0.03390706       0.00257715       0.23335777
H        2.19184294       4.43514408      22.47946266       0.05969332      -0.13622587      -0.43114669       0.09873689      -0.08057128      -0.14569357
H        3.61305470       2.02694594      23.41376770      -0.07493560      -0.86431177       0.64243222       0.04208404      -0.28222134      -0.03620291
H        3.28726687       2.31445386      21.79567015       0.33002682       0.26807748       0.84991578       0.03497265       0.00033881      -0.05145456
Cs       3.88605543      22.58951568      22.00301816       0.06125409       0.02586049       0.09715477      -1.37811703       0.68451862       0.00438162
N        9.29560550       3.07676925      16.29515706      -1.67466011       1.44019642      -1.25328055       0.67385656       0.23560625      -0.02017410
C        9.88426210       1.91053234      15.64641758       0.45309635      -0.18495058      -0.98105805       0.65206552      -0.18306953      -0.88848398
H       10.85995451       2.26483986      15.24645084      -0.23827709      -0.38788770       0.23406459       0.08351217      -0.13135920       0.08868230
H        9.28612809       1.60688034      14.76975409      -0.12763449       0.11124929       0.30268734       0.04930665      -0.04284866      -0.20764077
H        9.99926916       1.07516782      16.33417096       0.07052810      -0.10829918       0.17894712       0.37986449      -0.08072533      -0.33601936
C        9.19920609       4.26148318      15.32726870       0.12272890      -1.44881997      -0.88523160      -0.23843193       0.60922579       0.22636399
H        8.93791695       3.82804690      14.34040632      -0.34356202       0.09111303       0.42094476       0.08449954       0.34179183      -0.34452158
H       10.19711424       4.69469961      15.13876373      -0.23184293       0.15038345       0.63375235       0.16553046       0.10262197       0.04564522
H        8.41200377       4.91601557      15.69110649       0.18573799       0.42613695       0.04813704      -0.08582560       0.06546370      -0.11824944
H        9.92411012       3.42419650      16.96940560       1.57196605       0.34443758       1.79718936       0.14164909       0.05735166      -0.06600540
H        8.40074644       2.99686363      16.85626133       0.41069858      -0.51069803      -0.52401274       0.30758354       0.12022324      -0.00758148
Pb       0.01440425      -0.19827837      19.12917965      -0.49892074      -0.00485123       0.00775838       1.80693829      -1.96969536       0.66624876
Pb       6.04177608       0.16460076      19.20259978       0.40396206      -0.14505236       0.03230289      -1.05925530      -5.70642385      -3.22175393
Pb       0.39923886      -0.06950769      12.84510979      -0.01129577       0.19397791       0.00646555       0.76891546       1.36186844       0.40741006
Pb       6.71125047       0.05434890      12.76443010      -0.04500010      -0.30825243      -0.00777883       1.11702781       0.43711237      -2.46219594
I        2.92557481       0.35600795      19.69160018       0.50674725       0.21758843       0.16074499       0.46815505      -1.59646078       0.64701615
I        9.76129305      25.11395195      18.58284361      -0.18040188      -0.03312584      -0.01191256       0.74189933       1.13484466      -0.36720428
I        6.13497703      22.13471680      18.45410875      -0.15475065       0.15790903       0.02800703       2.16845346      -2.69300594      -2.11396474
I        7.35273396       3.57133933      19.35805765      -0.03396091      -0.53183853       0.00558489       1.07371845      -2.04731552       0.56054959
I        9.98257963      24.23587302      12.76058615      -0.06704703       0.16714311       0.07268979       3.56879291      -1.86694691      -1.45641771
I        2.88575554       0.03337725      25.18505289       0.48682024       0.11433679      -0.12789972      -3.15271801       0.83246762       2.07347349
I        7.26034762       3.23980972      25.05743190      -0.08621115       0.07461449       0.37951675       4.02925466       0.01373544       2.17145524
I        5.79114623      22.24202450      12.66758267       0.09248165       0.13887122       0.23660885       0.16509663      -0.87464264      -2.42407034
I       12.74882999       1.13838503      22.29954104      -0.04629848       0.04792140       0.15634255      -1.22452619       0.96747159      -0.50004062
I        1.18074570      25.39949361      15.77251401       0.01417088      -0.10723288       0.14056373       2.32693826       0.59582436      -1.64224880
I        5.96148666       0.25524432      16.06690922       0.02022036      -0.04683215      -0.17831324       3.10788137       2.71665356       0.60391483
I        7.31483142      25.70837734      22.21603121      -0.22540172      -0.00666681      -0.00295012      -2.05054533       1.11639677      -0.45687947
Cs      15.57218573       3.36408854       3.04855131       0.20737554       0.10756555       0.00153927      -0.38657314      -1.68700464       0.87752248
N        9.21420783      10.02197092      10.02097070      -0.89043251       1.50352311      -0.42459009      -0.72793287      -0.78193408       0.95512359
C        8.67422621       9.00562423       9.06425020      -1.33390818       0.26073433       0.90486585      -0.48957831      -0.10748067      -1.09252972
H        9.33231331       8.94661143       8.24142603       1.34426872      -0.37813973      -0.73369280      -0.25132010       0.14842260      -0.15951194
H        7.73296840       9.34612887       8.56814866       0.23626014      -0.15533819       0.90725444      -0.06919066       0.07936400      -0.21593930
H        8.60470792       8.08208325       9.66058955      -0.29783047       0.01798248      -0.60592705       0.09598352       0.16917755       0.07645421
C       10.30776382      10.84221214       9.40875952       0.34474636       0.64011796       0.15921347       0.20240194      -0.34699205      -0.31530170
H       11.05979664      10.21944471       8.91212081      -0.22137547      -0.33419207       0.03050549       0.07851537      -0.25770908       0.05023570
H       10.80009273      11.37075963      10.22785238       0.03818933       0.15501729      -0.00680827       0.13045277      -0.15723100      -0.34067729
H        9.92930381      11.58552161       8.66542053      -0.19054669      -0.54502993       0.47430970       0.09922827       0.11636112      -0.31079729
H        9.50898667       9.61280587      10.91778136       0.41793316      -0.52826762       0.08415252      -0.10387486      -0.38141503       0.35296308
H        8.46355710      10.69773199      10.37138771       0.48366176      -0.63728212      -0.65750730      -0.23028484      -0.23461079      -0.13884248
Cs       9.85425803       3.78595808       8.75954141      -0.18305823      -0.11860116       0.30873735      -1.28244996       1.74574150       0.44251814
Cs      15.97944294       9.63617913       3.30480696      -0.13618613      -0.02477971       0.06541313       0.20868177      -0.44022441      -2.82038278
Pb       6.47017381       6.38392913       5.81645361      -0.22455191       0.01127347       0.33892476       1.81988132      -4.20010360      -2.55740530
Pb      12.76769492       6.58004851       5.77762611       0.07525515      -0.04732696       0.22816702      -2.31431293       2.26486321      -1.47258632
Pb       6.60314863       6.77276737      -0.52796303      -0.11704298       0.02110091       0.21403314      -2.57065814       2.50961342       2.30484512
Pb      12.87336856       6.97972674      -0.27275767       0.21423770      -0.12473445      -0.01341111      -0.51600687       1.42014500       2.62392645
I        9.49029636       6.76650557       6.33781575       0.10072816       0.09842023      -0.23337986      -1.52489321       0.50982654      -0.09082184
I       16.06039802       6.20262485       5.58747295      -0.21025194      -0.02688835      -0.06557713      -0.64650852       0.81472405      -0.76365244
I       11.77811717       3.49026357       5.78007564       0.24292724      -0.07078576      -0.22465138       3.50419486      -1.06147452      -0.58475021
I       13.49193625       9.79984885       6.57791582       0.02996751       0.02805111      -0.04255309      -0.60620770       0.90735708       0.55208478
I       16.03144977       5.60127375      -0.03156718       0.02505221       0.25024424       0.05679375      -0.73572661       2.15296533      -1.00319282
I        9.37421568       7.16779010      12.53551853       0.08781572      -0.01070547      -0.05586411      -1.51493858      -0.67103356       0.82037761
I       13.18295543       9.70650079      12.25360192       0.10150620       0.16220771      -0.02017933      -3.16956850       2.90852154      -1.75087739
I       12.47324711       3.63174496       0.28397538      -0.17273503       0.14155008       0.05909437      -1.64036555      -0.60532860       1.04227358
I       18.38995353       6.52282574       9.25173402      -0.02080877       0.13200440       0.25626636      -1.29939555      -0.08100095      -1.86913739
I        6.39873913       6.20255298       2.76461215       0.10853652      -0.12631815      -0.01355267       1.41052349      -1.60468892      -1.50709908
I       12.46990481       7.45236218       2.88854839       0.10524055       0.14162105      -0.19798944      -1.31890165       0.49672648      -2.85170141
I       12.81550626       6.21143693       9.04317342       0.08300687       0.17300558       0.08587392      -1.92364874       0.73292631      -1.49940418
N       16.20000329       3.65958235      15.44887521       0.28557272       1.31529495      -1.08791590       0.56790418       0.41012734       0.64779579
C       17.62041922       3.91565974      16.03967148      -1.71930806      -0.43688459      -1.00998652       0.40357040      -0.39184897      -0.95260903
H       17.94981236       4.87484220      15.59965823       0.09709213      -0.35149861       0.39503263       0.06560525      -0.01436061      -0.22728385
H       18.17807479       3.05968758      15.65979638       0.46782231      -0.00194679       0.08982921       0.19375763       0.04271909      -0.22343936
H       17.48944030       3.87905749      17.11517400       0.20297018       0.21324040       0.39724302      -0.43929504       0.07922831      -0.06769744
C       15.55648237       2.35024669      15.58232686       0.50679840      -1.09952638       0.48375261      -0.16008950      -0.40429013      -0.07734606
H       14.95089276       2.09621328      14.70264636       0.18315992       0.19321782      -0.14178915       0.01824819      -0.36083465       0.14806153
H       14.87499816       2.32152881      16.43959228       0.23019473       0.09204306       0.23098475       0.02635129      -0.14241813      -0.07279922
H       16.38770903       1.62200634      15.69409911      -0.52604411       0.07790311      -0.02839210       0.11868259      -0.17623234       0.05460257