480
Lattice="25.5997368146853 0.14088505274600682 -0.03866475499414745 0.2056209914366332 25.492337820716713 0.17763758119489326 0.009943938362894637 0.07878683724663817 25.919764083741104" Properties=species:S:1:pos:R:3:forces:R:3:momenta:R:3 energy=-1743.1743164062502 stress="6.814425432821736e-05 -0.00011777648614952341 5.1023376727243885e-05 -0.00011777648614952341 -0.00011365042155375706 0.00035400310298427945 5.1023376727243885e-05 0.00035400310298427945 0.00011509778414620087" pbc="T T T"
Cs       9.21089395       9.38610924       2.99226225      -0.02677540      -0.04718416       0.09115346       0.47084529       3.55027554      -1.83118511
Cs       2.86225813      15.81163030       9.52837001       0.11049305       0.26641544       0.21699770      -1.56034661       2.06717836       4.66075115
Cs       3.23171403       8.92330627       9.59550534      -0.00607394       0.13777889      -0.06534352       1.45728412      -0.64413501      -2.02978916
N       10.24380612      15.60237539       3.43354265      -1.24509318       0.69181847       2.18125588       0.45802391       0.12341475       0.45542730
C        9.10127860      14.59715950       3.74377753       1.28948426       0.04857314      -2.01990924      -0.35326000      -0.17832635       0.76483401
H        9.62749364      13.64506408       3.84191036      -0.08487195      -0.20836283       0.35751268       0.02903552       0.14835628      -0.03745706
H        8.44517986      14.49976773       2.85611384       0.21321040       0.40376140       0.31263815      -0.25283945      -0.15919180      -0.13244308
H        8.55039353      14.86577995       4.61783516      -0.20374613       0.47379828       0.70838979       0.06761529      -0.17748227       0.13796720
C        9.78516341      16.90841504       2.90629602      -0.85186473      -0.27220784      -1.02252301       0.15776055       0.38520298       0.04517075
H        9.35051216      17.45910082       3.72397919      -0.30744201       0.42758334       0.25757188       0.24305798      -0.15010801       0.16061977
H        9.05575482      16.72435669       2.08377676       0.21960127       0.08309467       0.52141291      -0.17311180      -0.11080885       0.05366535
H       10.63141201      17.41396137       2.46248563       0.39208140       0.36270135       0.04074395      -0.03738616      -0.15549178       0.09000098
H       10.91669925      15.26700611       2.76120534       0.75793757      -0.86857824      -0.36691529      -0.12085943       0.16644088      -0.05516938
H       10.72037679      15.86672636       4.35137612      -0.14701884      -0.84338715      -1.06462233      -0.05766237       0.18790719       0.19359962
Pb      -0.10837986      12.84248107       6.42942834      -0.09233024      -0.01574172      -0.07974765      -0.26847847       2.30842916       2.45634766
Pb       6.04411919      12.48435621       6.59678677       0.33834952       0.00420338      -0.02773258      -1.35709560       1.21534419       7.17790726
Pb      -0.24508157      12.97565310      -0.20750407      -0.07415900      -0.19415366       0.15376007       3.66084184       1.47913786       0.20733278
Pb       6.11169091      12.86833091      -0.32280451       0.04494328      -0.37291937       0.08598359      -2.55959273       0.23021870      -0.36945774
I        3.07010987      13.22318924       6.99797090      -0.14580270      -0.11269871      -0.12187636      -1.50337240       0.93774767       2.16432581
I        9.33344206      11.82188987       5.79901874      -0.03498023      -0.12471530       0.32164852       1.42289393       0.21027327       0.96384100
I        5.21190751       9.64460702       6.03711398       0.03421113      -0.37117348       0.04984498      -1.23614377      -2.04808530       0.50757574
I        6.45410104      15.93520332       7.53487542      -0.15492713       0.05320864      -0.31589981      -0.92886399      -1.10529019      -0.14934605
I        9.43044840      12.03120566       0.32557477      -0.10936261       0.16159101      -0.18508395       0.19144990       1.81642568      -2.56389651
I        2.93983491      13.00277687      12.53624201      -0.02896382       0.05452194      -0.11025580       0.42904765      -1.32519045      -0.45535895
I        6.41128890      15.65094471      12.33934403      -0.14658511       0.06917193       0.28306587      -0.78449673       0.34598080      -0.59532813
I        5.86477381       9.45466174       0.12791667      -0.26172386       0.23548627      -0.13935851      -1.52230176       1.14771550       1.65245318
I       12.40633148      12.52957595       9.47847001       0.12624432       0.24512039       0.12640644      -1.49140267      -1.83570020      -0.09284367
I        0.07013590      12.18101990       3.23618786       0.04972247       0.13750040      -0.00826692       0.14238873      -0.02018488       0.79656235
I        5.72107281      12.09894048       2.73987131      -0.05292758       0.19089052      -0.01600455      -3.18253635       2.22752371       0.98850631
I        6.72623834      11.62996299       9.59725128       0.01786917      -0.05322717      -0.27703758      -0.17547314       0.40155197      -4.08315506
N        9.44068049      10.00804542      16.73289055      -0.62617028      -2.69984382      -0.79038872      -0.35249464      -0.21801163       0.54686090
C       10.88611284       9.70920793      16.73708120       0.43944334      -0.72857569       0.71437682      -0.33971983      -0.31542771      -1.37553904
H       11.20705744       8.97672015      17.51319184      -0.74511550       0.17362026      -0.18347693       0.13276200      -0.10615015      -0.24177228
H       11.36531874      10.61796135      17.00086432       0.93505125       1.02978561      -0.02693431       0.03395447      -0.03099190      -0.03983061
H       11.21602113       9.28390329      15.78607286      -0.14747071       0.33797638      -0.22941792      -0.23257074       0.13231981      -0.01568754
C        8.73544009       8.90804405      15.82785625      -0.99332559       0.89764731       1.85671346      -0.41264847       0.29644066       0.00525575
H        7.71530195       9.31269332      15.67837040       0.35974414      -0.27392012      -0.20778570      -0.11498149      -0.06250064      -0.26211038
H        8.68436851       8.00901353      16.43943622       0.04893237      -0.18255053       0.17851383       0.07149529       0.10487469      -0.05293952
H        9.24439093       8.67650651      14.89820532       0.43373661       0.50674979      -0.16294243       0.27299847      -0.30902825      -0.09120507
H        9.22383945      10.84226144      16.21546704       0.13067438       1.25276055      -0.32100178       0.29268550      -0.05920230      -0.07091085
H        9.05486296      10.12200698      17.72338014       0.24562510      -0.23549171      -1.02775199      -0.01510825      -0.11023564      -0.11090566
Cs       3.67630230      16.40364389      22.75582579       0.07119699      -0.05465685      -0.06433645       2.83500685      -0.04355658      -0.29051952
Cs       2.98751634       8.66383152      23.10466382       0.07664465       0.14781623      -0.06828977      -1.16910569       0.31896455       0.79337671
Cs       8.70552193      15.02384907      16.10617473       0.13748656       0.15274210      -0.08011582       1.11230029      -0.93210176      -2.08400617
Pb       0.13435747      12.58077922      19.38078329       0.03250995       0.02743473      -0.01936566       0.52226782      -0.83635840       3.26175536
Pb       6.19096872      12.97097304      19.24140458      -0.15517963      -0.47968934       0.20269833      -3.51609751       0.78268127       2.04677235
Pb      -0.52235124      12.88872123      12.68417996       0.48760737      -0.08567955       0.04909105      -0.76557494      -3.08310328      -0.00197499
Pb       6.12990727      12.44071203      12.49967534      -0.08480741       0.13398211       0.26729978       2.55109811       0.54690573       2.24021889
I        2.99452256      13.19264024      20.18335660       0.23898683       0.15912970       0.12872463       0.77834457      -2.82964217       0.10300717
I        9.57689265      12.40445366      19.30247725      -0.16238940       0.05423383      -0.06235613       1.60102469      -3.27156037      -3.64040875
I        5.19283342       9.77242434      18.82801055       0.31822353      -0.13552989       0.03627549       3.13793961       0.26158942       1.13559717
I        7.10430497      15.81857576      20.00424280       0.07119377       0.15616051       0.13019088      -4.87445036       2.67904840      -3.99824829
I        9.28263208      12.06834219      13.41790357       0.10304137       0.03239951      -0.05142016      -1.66361838       1.41620786      -3.13773978
I        2.87406337      13.22272916      25.41909762       0.24815772      -0.00671159      -0.24396187      -2.20058162       3.55838509       4.08243196
I        6.88151337      16.09847006      25.77748016       0.01229420      -0.32833636      -0.11872771       2.48441484      -1.68869439      -0.97939640
I        4.88539532       9.46511479      13.00542261       0.19910058       0.10871576      -0.05246723       1.58690630       1.34985610       2.12322686
I       12.61874846      13.60388249      22.49557124      -0.12173332      -0.11039869      -0.03113814      -0.04088304      -1.00014717       2.83592167
I        0.47801791      12.60412739      16.14070389       0.03203396       0.10420178       0.01141009      -0.01758297       0.36747178       4.82771298
I        5.86369130      12.55774597      15.84159255       0.04703990       0.05146098       0.13981113      -1.12692890       0.61254329       1.40896726
I        6.46907386      11.84992878      22.27746528       0.03699799       0.28724554       0.15303614       1.57810288       0.23060363       4.00730653
Cs      15.96432225      15.59086359       3.23402944       0.04555535       0.05330908      -0.21904526      -0.37995864       0.05935490       1.98547058
N        9.55532399      22.35890087      11.16066591      -2.05953367      -2.10536567       0.21293350       0.45075101       0.58561624      -0.16874856
C        8.55459715      22.46078910      10.02103916       0.97250413      -0.18462574      -1.03034162      -0.09329205       0.27620071       1.35062406
H        7.63821129      21.95370781      10.27053284      -0.49671902      -0.26957578       0.33501610      -0.42464134      -0.00928563       0.02595746
H        9.00949306      21.94458734       9.14693638      -0.14622895       0.01512073       0.45389612      -0.30923805      -0.30128733       0.18141010
H        8.30711655      23.47118191       9.64734296       0.38731749       0.08933681       0.67892710       0.09847314      -0.02921777      -0.00651883
C       10.95420516      22.39478625      10.74589709       0.66959003       1.07647418      -0.62558185      -0.13979986       0.01930321       0.01494930
H       11.20139545      23.46119478      10.38448027      -0.25205130      -1.43345592       0.52027623       0.09519074       0.07756248       0.00922611
H       11.10918548      21.67762417       9.93018952      -0.09315959       0.06209357      -0.02364044      -0.02403846      -0.05993441      -0.10285211
H       11.60792326      22.09100442      11.58299990      -0.15608782       0.26847162      -0.06734765      -0.15855125       0.02022182      -0.21551143
H        9.25843636      21.47062345      11.79733752       0.96919643       0.87693724      -1.21077905      -0.03728397       0.15595540      -0.15856634
H        9.36107722      23.06704453      11.85031376       0.00620442       1.44797355       0.63510957      -0.12562047      -0.10234858       0.03960809
N        8.59667111      16.77051605       9.99797018       0.76474592      -0.44002324      -0.69113052       0.25745388       0.09578561       0.31466932
C        9.40220432      15.43504413       9.85866251      -1.41279662       0.94187852       0.59816773      -0.00961110      -0.57509422       0.06457665
H       10.37797122      15.72093784       9.46093172      -0.05016145      -0.18751669      -0.18449670      -0.06465103      -0.01818474       0.12260692
H        8.73764876      14.88035816       9.15478042       0.86145625      -0.18966871       0.47513667      -0.11937654      -0.04685876      -0.17873831
H        9.49278029      14.97488667      10.87340230      -0.10079771       0.28438961      -0.75056554      -0.30596875      -0.18858560       0.00965169
C        9.37153735      17.99670356      10.10801381      -0.43157167       1.53294389      -1.34738477       0.03737382      -0.69592086      -0.14001881
H       10.03096510      18.07526540       9.22519335      -0.02961823      -0.04255923       0.32206411       0.00542771       0.04736083       0.34774963
H        9.90689179      18.10608634      11.02515527       0.46597871      -0.32431106       0.81777290      -0.15206893      -0.15039350       0.06166481
H        8.61980660      18.82964869      10.04174240       0.68530464      -0.41948228       0.09888799       0.13334654      -0.02845449       0.05644401
H        7.95094262      16.77839627      10.81917987      -0.33831777      -0.68505513      -0.17156232      -0.11658935       0.03187498       0.00658060
H        8.05269882      16.89493867       9.07850102      -0.14443644      -0.50773068       0.86736690      -0.21586995      -0.08019011      -0.02060341
Cs      16.44274533      21.80986759       3.70377666      -0.03989651       0.08784252      -0.10879867       0.32309547      -1.95212990       1.64842198
Pb       6.07369549      19.21748690       6.92903441       0.19769297       0.04452947      -0.10968152       1.42125972      -4.40053005      -0.03069225
Pb      12.77964160      19.04143689       6.63344310      -0.05519545       0.17053128      -0.05645043       1.28745412       2.48030584       0.74253641
Pb       6.97235772      19.08143453       0.22064911      -0.30057769       0.36297141       0.04339368      -0.38151917       2.53213072      -1.35291066
Pb      13.19392574      19.35799526      -0.06493309       0.12629662      -0.15396878      -0.00043153      -0.58758848      -0.95602598      -3.66041383
I        9.55098049      19.59884677       6.31774834       0.16317170       0.04522713       0.05126162       0.40007262      -2.14655552      -3.01034618
I       15.96257479      18.06437282       5.80244097       0.05019365       0.25565149       0.22521682      -1.55545227      -1.73814664      -0.53296433
I       12.67769400      16.06842704       7.32107068      -0.11377056      -0.19921704      -0.21114974      -1.10263439      -1.39651696      -3.61103895
I       13.59056350      22.33816527       6.76003518       0.00549540      -0.10049729      -0.03974396       2.58678222       2.65319136       1.16332948
I       16.51702339      18.62340924      -0.11964516      -0.40942139       0.03801784      -0.04572881       0.64988259       1.13612927      -1.17439297
I        9.32265626      19.75425145      13.61098014       0.11658383       0.05226368      -0.01709567      -2.31338804      -0.47296654       2.34084856
I       13.98662260      22.30518434      12.71161392      -0.03957156      -0.03656584       0.31828904      -0.09469034      -0.06841754      -0.33231036
I       12.47583632      16.04172764       0.18550113      -0.05153196       0.10531189      -0.00209393       0.78264563       0.62021301      -2.96932605
I       18.38736849      19.21017345       9.60261170       0.01597790      -0.03515708      -0.11714076      -0.97165540      -0.24374476       0.94492633
I        6.50305753      19.51804960       3.41881994      -0.06059479       0.08198575      -0.04906235       0.85323737      -0.44999805       1.57691658
I       13.25296646      19.85749003       3.07157440      -0.08799636      -0.06756545      -0.05559790      -1.13283110      -0.42159408      -0.16914391
I       13.12504347      19.23986639       9.73748869       0.18201695      -0.02497152       0.00418517       1.52392240       1.80655649       1.97721547
Cs      15.52921417      16.21552187      16.03943071      -0.00593445      -0.13536503       0.26394587       1.74465335      -0.17943701      -1.83121740
Cs      10.23670031      21.80987662      22.68741369      -0.03048207       0.25994471      -0.17253458       1.02561692       4.77329881      -1.63921336
Cs       9.51730333      16.06902372      22.83953110       0.12693694       0.00958484       0.04000607       2.08683202      -0.05170442       1.03394526
Cs      16.10327244      22.77531712      16.89542211      -0.06267295       0.01710430      -0.18435404      -0.12977026       0.23010499       0.11552472
Pb       6.82122271      19.47984527      19.47110927      -0.12657368      -0.40017109       0.25374202      -0.29477566       0.41090636      -5.30283683
Pb      13.13600414      19.49981172      19.32690820      -0.16569984      -0.78813786       0.06024315      -3.11658323      -2.99166454       4.29559153
Pb       6.21694806      19.37427125      13.20316204      -0.06596956      -0.02434093       0.06459337      -0.26857026       4.02759613      -3.00992587
Pb      13.21665040      18.98777331      13.21108597      -0.18398873       0.16543602      -0.34300278       0.74464319      -3.46607240       4.41223933
I        9.79966598      19.85179884      19.42097280       0.31906312      -0.04684377      -0.12322422      -0.31545963      -2.34724905       2.88469052
I       16.21674803      18.53094309      19.09673824       0.11619241      -0.01490258       0.10251589      -4.80169819       0.75491834      -1.78628437
I       11.97967068      15.98591306      18.60166531       0.01428936      -0.00256320       0.06192163      -1.65225126       1.00419439      -0.32875535
I       13.10746272      22.39378688      19.41693206       0.12904438       0.20211345       0.07983583      -0.39065990       1.58360812       3.59850203
I       16.10584956      18.09857308      13.12084316       0.08027465       0.16482691      -0.27174175       0.18470070      -3.37546384       0.44990314
I       10.05066292      19.81969780      25.61531991      -0.01705827      -0.10914264       0.29073202       4.87686234       0.08990075      -2.19317418
I       13.44441774      22.55722205      25.23498187       0.06854614      -0.17579828       0.07184763      -0.11200729       0.03401421       1.18436159
I       11.80149644      15.84371647      13.25337917       0.04195329       0.25706517       0.03247888      -1.98235734      -0.78816161       0.82743864
I       19.80033866      18.46168709      22.68500900      -0.06571591       0.04736370       0.04529312      -1.21621515       2.06086107      -0.82607657
I        6.36138526      18.57450545      16.56204357       0.33279494       0.13347856      -0.60036451       4.55448021      -0.16480653      -0.17898645
I       13.69722482      19.55254523      16.13881491      -0.16137013       0.17218136       0.15256293      -1.07288066      -0.71322850      -2.92709065
I       12.69496361      18.46473577      22.54173981       0.13034188       0.07600422      -0.05578963       2.76821587      -2.70687939       1.64102270
Cs      10.28531559      22.37730872       3.48296960       0.02403007      -0.20262406      -0.09230941      -3.39156467       2.17825586       1.64475723
Cs       2.98373483       3.63782411       9.52860666       0.12048311      -0.35119625      -0.04320853      -2.44282707       1.05567776       0.69629999
Cs       2.86896461      22.83051667      10.41210233       0.19638807      -0.09250456      -0.21276772      -0.78771454      -1.59078684       0.23637928
N        8.96599432       2.69427607       2.21358689      -0.52467497       0.49242199       1.85681556       0.03691300      -0.87579882       0.11539850
C        7.68467348       2.76896841       3.07561286       0.87027941      -1.61556128      -1.46761087       0.22473561      -0.06147780       0.06575260
H        8.08226873       2.67744164       4.03654367       0.53068715       0.02319730       1.90979474      -0.28015448       0.16253116      -0.09399292
H        7.02152491       1.89168629       2.94364462       0.24158154       0.38362523      -0.49760796       0.07390099      -0.05700395      -0.17082447
H        7.16826088       3.69056922       2.98479028      -0.33731461       1.05771699      -0.47990475       0.25007563       0.10187316      -0.23415986
C       10.04743517       3.58013970       2.79449098       0.23498950      -0.49721651      -0.87516960      -0.36343109      -0.68263129      -0.13915583
H        9.77488741       4.65029507       2.89069182      -0.31474622      -0.49974996      -0.12694635      -0.07997911      -0.03579019       0.15418140
H       10.92245965       3.47177436       2.13043134      -0.11063237       0.21029272       0.16926889      -0.27685247      -0.09186479      -0.24809430
H       10.28500675       3.13762610       3.74451785       0.13872289       0.00363508       0.82042537       0.00012487      -0.11517807      -0.14418589
H        8.82264943       2.92779219       1.23388748      -0.51283251       0.67611172      -1.09568786       0.04271155      -0.02444044      -0.01728732
H        9.29023638       1.72237125       2.15793164       0.12432217      -0.28096250       0.35028351       0.04352654      -0.07668286      -0.27148397
Pb       0.30759686       0.22727195       6.39528471       0.01948701       0.00918657      -0.02897403       0.44694306      -0.84237340      -0.07237590
Pb       6.64148697      -0.09297521       6.10405053      -0.35218371       0.16544883       0.23234250      -4.04072379      -1.44104729      -4.37069382
Pb      -0.24288007       0.19456976      -0.18090031       0.21733634      -0.32119066       0.16506619      -1.93719036      -3.15828396      -1.68103569
Pb       6.58678456      -0.14974495      -0.58213487      -0.47508088       0.07118743       0.24327337       5.67714583       2.00006829      -0.69804754
I        3.43696232       1.19519111       6.13010002      -0.09002464      -0.07386586       0.04502950      -0.76049456      -1.01230559       1.68067664
I        9.95220540      24.74759021       6.21979126      -0.26569150      -0.01634748       0.06167387      -2.02992949       0.52545974       1.26292121
I        5.39617361      22.56593216       6.67952973       0.11457685      -0.02044767       0.06202112       0.88547934      -0.50867664      -3.47508618
I        7.63729483       3.04610594       6.97144006      -0.24781432       0.14436713      -0.21897707      -3.70738816      -0.77686036       0.04538807
I        9.50187501      24.48196125       0.45171883       0.45137541       0.06227485       0.10742284       1.88155587      -3.28777694       0.88597440
I        3.23363089       0.60047145      12.91336341      -0.06372669      -0.12072992      -0.06697700      -1.80911117      -0.24398880      -0.84527818
I        6.80939073       3.45070339      12.85233188       0.08172481      -0.06352088       0.06820098       2.53288364      -1.67591872       1.22074099
I        6.17692197      22.28928516      -0.53654442      -0.18918207      -0.05536464       0.12701256      -0.20139399       2.75257737       0.48218817
I       12.85395831       0.54639966       9.70494391      -0.09311230      -0.15340323       0.20634388      -0.19340128       2.47135114      -0.40126984
I        0.18392156      25.46277222       3.38348832       0.26787143      -0.05103324       0.05030352       1.42198632       0.30144871      -1.00154045
I        5.70347514      -0.63469002       2.73044716       0.29535709       0.19678510       0.16606402       1.67037985       0.53284272      -0.04493369
I        6.63554954      26.25181062       9.60231612      -0.11766257      -0.22945029      -0.01824113      -3.71646380       2.34427616       0.79549868
Cs       9.67326404      22.68950993      16.25232931      -0.06354279      -0.05398084       0.02875320      -1.34833462      -0.41250659       0.49011200
N        3.24796009       3.09419377      21.72548395       1.77319563      -0.25036658      -1.20923448      -1.66052517       0.30712888      -0.12499865
C        4.22902354       3.31276620      22.81871648      -0.08363604      -1.37553970       1.46706521      -0.60119904      -0.55319336      -0.75322660
H        4.18125552       2.38164743      23.48581385       0.05712917       1.06700373      -0.62350780       0.30976692      -0.07977049      -0.14562420
H        3.99777155       4.20251760      23.44144829      -0.26722383      -0.29988062      -0.43941269       0.08105384       0.31737916      -0.29648195
H        5.23472636       3.40357371      22.43435113       0.42006970       0.07541293      -0.42852147       0.32188360       0.01176463      -0.36635207
C        1.91077400       2.93474690      22.26987076      -2.00062545      -0.35595267      -0.18365554      -0.60454191       0.04359558      -0.07423067
H        1.77154538       1.88295058      22.60079875       0.12729356       0.29136779      -0.27429029       0.11843911      -0.08389161       0.05768215
H        1.07143732       3.21915771      21.55159114       1.07853481      -0.35325708       0.49842167       0.00453000       0.27008562       0.19708675
H        1.76211967       3.52986565      23.17093912       0.33510197       0.41645330       0.10222918      -0.00127755      -0.17546024       0.05875901
H        3.53676502       2.19826631      21.12698959      -0.50261616       1.00989332       1.00476875      -0.01873897      -0.22145387      -0.05553555
H        3.39958254       3.90733021      21.05564038      -0.70352047      -0.08055612       0.26526709      -0.10736855       0.03726317       0.15685308
Cs       2.87202095      22.15149504      22.98216172       0.27016507       0.13896521      -0.12952830      -1.17973651       0.43973006       4.63924274
Cs       9.24256624       3.84891413      16.18743366       0.05270900      -0.14124151      -0.06720591       0.07056253       0.11812300      -0.05451083
Pb      -0.01969835       0.24521357      19.57724883      -0.01800170      -0.19847684      -0.06578236      -3.15987082       1.99180317       1.92208120
Pb       6.36210614       0.09308420      19.38790078       0.19100019       0.09246197      -0.10233520       0.23342293      -0.63684985      -3.46371201
Pb       0.11187934       0.17597267      13.14123246      -0.14886405       0.26362926       0.03611490      -2.96305909       2.84904061      -4.47496644
Pb       6.26241559       0.18806919      13.05488058       0.34277178       0.09706944      -0.34414042       1.19694532      -0.65514500       2.00124523
I        3.27222031      -0.14864650      20.23600219      -0.15893336      -0.01659187      -0.05972929       3.36319280       2.78558364      -0.66913805
I        9.84157078      25.34983400      19.53108063      -0.28257847       0.00391774      -0.12643820       0.93898453       2.43893230       1.92007699
I        6.66376043      22.37858094      19.06634372      -0.19120825       0.41235607      -0.16283792      -2.03335608      -2.47655604      -0.56114224
I        6.99282326       3.25996220      20.02018092       0.04798762       0.18002665      -0.20110499       2.21326845      -1.75484874      -0.44161157
I       10.00009967      25.53416391      12.78764824      -0.01489311      -0.01266927       0.14575765      -1.99057047      -2.34571789       0.32398025
I        3.11958611       0.57658221      25.36256874      -0.14193329      -0.14165409       0.16929328       0.89520552       2.88778876       1.79919394
I        7.45278305       3.53114358      25.36773241      -0.31220314      -0.19933053      -0.50853907       3.10454513       1.34942039       3.50283097
I        6.12834238      22.57446781      13.89855193      -0.07205341      -0.20303266      -0.05771650      -0.52824149       0.39433545      -1.46240466
I       11.85312449      -0.14868433      22.50043406       0.04858305       0.21356371       0.33822582       1.16998330       0.07875421      -0.17811228
I        0.19189559      25.53720056      16.53427284       0.19055425       0.07102551      -0.08328206       0.19621187      -0.59167083      -1.83630967
I        7.30383042       0.42233630      15.88114287      -0.04016335       0.12115725       0.28451104      -0.08443509       0.70016069       1.60559294
I        7.04875016      25.01008909      22.52662923       0.11634290      -0.02321912      -0.05742442      -1.49935068      -1.37529978       1.63226203
N       15.64148302       4.20034362       3.05136414      -0.45908425      -0.75908268      -0.77450530       0.24160687       0.71615408       0.75155583
C       16.80035015       3.70998208       3.88148723       0.91732869       0.99748182      -0.83147266       0.68348713      -0.89256237      -0.27041841
H       17.12840944       4.51545436       4.53833838      -0.31813172       0.06963765       0.47840808      -0.06362165      -0.18609301       0.29018708
H       17.67203137       3.63263253       3.20050205      -0.34729157      -0.55058811       0.07041159      -0.09522898       0.03036548       0.08710752
H       16.61958148       2.76949794       4.41991506      -0.34888570       0.24494250      -0.24818155      -0.09270616       0.24741567       0.15609446
C       14.62210351       3.05225325       2.81953092       1.31572156       1.43195484       2.02620033       0.13366318       0.03024912      -0.12677221
H       13.69908026       3.59171278       2.72224451      -0.77821303      -0.31090540      -0.55947074       0.08435420       0.03993432       0.12216542
H       14.67534115       2.51919020       3.78085514      -0.43085896      -0.22426023      -0.40381427      -0.06440834       0.00308343      -0.13957467
H       15.04686485       2.48684651       2.02112777      -0.27980900      -0.65587059      -0.78662237      -0.03797664       0.07688724       0.24311308