320
Lattice="25.341798991772684 0.46619726065896855 0.15657581558535708 0.47094838102884634 25.33470547362968 0.019379968236300775 0.012224041430286301 0.16081049852292875 25.372487999076743" Properties=species:S:1:pos:R:3:forces:R:3:momenta:R:3 energy=-903.33984375 stress="0.0005844226689077913 -1.1786219147325028e-05 2.58962572843302e-05 -1.1786219147325028e-05 0.0007355829002335667 0.00021410873159766194 2.58962572843302e-05 0.00021410873159766194 0.0008261503535322844" pbc="T T T"
Cs       9.77019593       8.76449080       3.24135114       0.18740894       0.35933132       0.15520361      -1.03162619       0.53621376      -2.72243790
Cs       4.20473775      16.12623572       9.48049087      -0.02664278       0.05775247       0.04429890       3.60175654      -1.78881353      -0.56653537
Cs       3.36091750      10.50755859       9.65919929      -0.26637095      -0.21336111       0.13456106      -0.27258166       0.55517608       2.34891298
Cs       9.67546615      15.13085108       3.56254985       0.05766973      -0.02975764       0.16210352       1.85887283       1.65065286       4.24707713
Pb       0.23170259      12.85041920       6.53655176       0.67088284       0.09998252       0.24811711       2.07318499       1.02894758       0.23270200
Pb       6.70361990      12.74114494       6.27950838      -0.01524580       0.06705428       0.03286581      -0.59136679       0.96157329       1.16287711
Pb       0.61880217      12.70093121       0.04948617      -0.12603986      -0.07470949       0.06272086       1.37153551       1.70486080      -0.39186658
Pb       6.60496162      12.73418951      -0.15426910       0.29133034       0.20603865       0.24804552      -0.04156892       0.62434334      -0.33176318
I        3.48429287      13.52857916       6.80818986      -0.08345429       0.11779434      -0.03541646      -3.97674650       0.69535250      -1.09005891
I        9.62900006      11.80872535       5.69885773       0.08382617       0.13623934       0.01726443       3.24510680       5.77812735      -4.57595490
I        5.92863140       9.80494904       6.13162396       0.00107255      -0.12178358      -0.11228425      -3.33363758      -1.30286763      -2.72922282
I        7.44361559      16.44952801       6.82190449       0.03272156      -0.38540314       0.08144740       2.77817181      -3.88630847      -3.01085165
I       10.06046596      12.16953089       0.44222737      -0.19872505      -0.02250794       0.01404969      -0.84474346      -2.19424836      -0.71390300
I        3.41211089      13.45407972      12.51405581       0.10946959       0.15381605      -0.01009680       3.24579882      -1.24232398      -0.40873307
I        7.98844810      16.09873598      12.79781208       0.02982016       0.05390121      -0.13419659      -0.14816458       1.10894611       1.16775252
I        6.31333532       9.66145797       0.22297353      -0.08558722       0.11491299       0.07150996      -0.97602134      -1.14758393       2.75040441
I       13.09622452      13.82628727       9.56857753      -0.06383821      -0.12293045      -0.18435231       0.17688673      -1.01086651      -0.44222956
I        0.50071955      12.39317594       3.27548993       0.17237797       0.06589486       0.00469632      -0.23910843       0.20131941       1.69461250
I        5.65739584      13.24763298       3.40288666       0.11291377       0.16957653      -0.33172267       1.34763578      -1.18229840      -4.12944214
I        6.28794910      12.37043042       9.49335599       0.48501663       0.23313751       0.16971826      -0.12610061      -0.16076366      -2.79444897
Cs       9.18994757       8.74218215      15.18876810       0.04105005       0.33752964       0.03717547      -0.03339277      -1.75035954       1.30253396
Cs       3.93178406      16.82122321      22.69703554      -0.12339220      -0.37581955      -0.02441894      -0.11435127       2.06780436      -0.47461854
Cs       3.99544661       9.88951714      22.47488974      -0.14990831      -0.01760370      -0.09864781      -0.75141690      -1.14660530       1.17985216
Cs      10.02998587      15.47249429      16.14449078      -0.06053007      -0.06327614       0.05788354      -0.17277672       1.14891061       1.27273243
Pb       0.38197585      12.80186822      19.29496977       0.11098684      -0.00884111      -0.34456341      -4.16125811       2.97338261      -0.24395099
Pb       6.64918787      12.86670201      18.93099143       0.14332483       0.24611366      -0.05367331      -2.49202737       1.14348046       1.41942414
Pb       0.15924949      12.78995551      13.02783105       0.18890128       0.04085464      -0.09854877       1.52409382       1.30902305      -3.74965939
Pb       6.74928063      13.41653248      12.62487376      -0.03762206      -0.30871474       0.12945309       2.31504566      -2.41440465      -0.21732450
I        3.58835541      13.73280419      19.25687877      -0.00962368      -0.06788992       0.03681587       2.01770835       0.24635887      -1.54729680
I       10.04051232      11.91110140      18.56819281      -0.10719896       0.13082324       0.01200742      -0.63194434       0.70640467       2.11257307
I        5.88183851       9.92810672      18.97755219      -0.01569620      -0.17118570      -0.06880030      -0.42200035      -1.70168195       0.47253283
I        7.82979855      16.19008471      19.64559940      -0.24170112      -0.29426972      -0.49529423      -2.08978865       2.62390904       1.48371373
I        9.69662767      12.06096721      12.92806631       0.00359404       0.04444319      -0.04229327      -4.16021104       0.05480974      -0.70424402
I        3.70674786      13.45480117      24.52340236      -0.18224005       0.06154950       0.12496594      -0.53649922      -1.58094374      -1.45597575
I        8.10957015      16.06856334      25.70627678      -0.40038337      -0.25808797       0.12528994       0.19140395      -2.08965967       0.75199445
I        5.82705987       9.23990984      13.62339346       0.08301078       0.13463213      -0.08118873      -2.10046894       0.13077684       2.73861840
I       12.16432024      13.69458866      22.12144026       0.18350744      -0.23481118       0.30767839       1.27754608       0.18182093      -2.08215356
I        0.93964182      11.98890060      16.03530937      -0.12386120       0.27504548       0.11707180       1.55646908       0.29277320       1.43497550
I        6.57833414      13.26592951      15.76231846      -0.03025442       0.01756848       0.06765580      -2.17810869       1.44856244       0.55350879
I        6.97461837      12.73382014      22.17452268       0.15056768      -0.05394092       0.01984699       0.12159431       0.50173067       1.13835478
Cs      15.88702198      15.82486342       3.31885450       0.09405166      -0.17981377       0.02835112      -3.46236439      -2.88211105      -0.34228573
Cs      10.47172053      22.47124939       9.46026569      -0.14575263      -0.04722964       0.11255108      -0.38833824       1.78241746       3.47090148
Cs      10.29479550      16.34065452       9.58958680      -0.33722225       0.01681607       0.01947120      -0.89842385       1.10377676       1.67342857
Cs      15.84958031      22.39489697       3.83965268       0.02418467       0.04929574      -0.25067377       2.10121692      -2.09292580      -2.03701346
Pb       6.62033533      19.43282095       6.43588793       0.07764831      -0.06963393       0.21021674      -0.69417138      -2.38630067      -1.90568299
Pb      12.89543246      19.24605760       6.33755710       0.19898460      -0.13885620       0.10277401       2.83433901      -1.44899393       0.09331888
Pb       7.25129487      18.77701776       0.48070343      -0.29905197       0.38522755      -0.31608706      -0.93357072      -1.09427777      -5.18773362
Pb      13.08853922      19.10531038       0.38056626       0.06391156       0.18050771      -0.13303417      -2.89780486       0.85586059       1.13959853
I        9.88664811      19.86200346       6.93788411      -0.12131996       0.00979316      -0.00951201       0.53734540       2.43705867      -2.83775515
I       16.14801275      19.08442385       5.60109176      -0.04147905      -0.04733384       0.14142266      -2.05989639       2.21971488      -0.88758716
I       13.03930778      16.13098343       5.58772630      -0.24861266      -0.26650269       0.18564197      -1.64655580      -0.82163180       2.03514576
I       13.55470162      22.46783279       7.05813415       0.13219726      -0.23557312      -0.03503445      -2.75777057      -0.11936376      -2.51038462
I       16.21877733      18.33811046       0.75593946       0.19940181       0.14271338      -0.17659200      -0.07222992      -1.91680563       0.81502397
I        9.91241110      19.73022503      11.96130799       0.27157911       0.00224450       0.09763823      -3.58730686      -0.19668936       1.17188149
I       13.76357577      22.30944049      12.23675317      -0.06119050       0.05118420       0.10055288       0.48218230      -1.28833033       0.66474160
I       12.19618892      16.16820317       0.89283579       0.19799807      -0.35810700      -0.11528172      -5.75646201      -2.11853924      -0.42785034
I       19.00146637      19.68109043       9.85126619       0.03104553       0.01529639       0.12015985      -2.17131908      -0.28153917       0.00329630
I        7.42460078      18.84766465       3.45797591       0.11832829       0.04587212       0.17283912       0.90268374      -5.09575634      -0.28596012
I       12.19145535      19.45058438       3.35543382      -0.09251296       0.23578686      -0.02688216       3.42051274      -0.02528073      -1.58265234
I       13.26912144      18.28471544       9.43943663       0.27910679       0.16138109       0.17437785      -2.04585448       1.81615093      -2.55956415
Cs      16.10717941      16.02261898      15.71669320      -0.08391539      -0.06872945       0.03270967       0.66039574       3.18472331       2.66567548
Cs      10.97826979      22.66290025      22.17676193       0.02788713       0.07884254       0.37568891       0.77269181      -0.40766338       0.50985926
Cs       9.50431012      16.16371593      22.54023315       0.42322047       0.14045254       0.10909280       1.42658474       1.82608404      -2.48749935
Cs      15.94142895      22.10229595      15.89445585      -0.18479711      -0.08161409       0.12780743       2.26120834       0.16137348      -3.90281454
Pb       7.08518777      19.28793475      19.24522392      -0.10158418      -0.33718942       0.19091579      -4.49405950       0.75318439      -4.07874091
Pb      13.32683044      19.37962704      19.18530200      -0.27241883      -0.08797605       0.06870824      -3.90930816      -2.31069087      -0.85911044
Pb       6.87296597      19.53383933      13.13575712       0.25525103      -0.55414953      -0.30699931       1.65199467       3.79972469      -1.39402612
Pb      13.14022831      19.10609516      12.68596581       0.00663523       0.17198406      -0.02061166       0.00269326      -1.72985497      -1.97063369
I       10.04678745      20.22766196      19.84379029       0.09091956      -0.23486825      -0.20289433      -0.17221675      -2.02597186       1.62294238
I       16.12390753      18.82717659      18.40974186       0.40495675      -0.09825193       0.01913603      -1.81035347       2.84959732      -0.26034732
I       12.44278427      16.03958978      19.00483013       0.19442405       0.15389145      -0.08402240      -2.46093568      -1.57525107      -1.53354871
I       14.34154594      22.70607528      19.48136103      -0.03177112      -0.49311789      -0.12699356       0.88945571       1.63506626      -4.96376026
I       16.30910564      18.75130517      13.07875047       0.09539590      -0.00771669       0.03591104       0.20804494       1.26428430      -3.20132645
I       10.11755712      19.62514493      24.77716643      -0.16596381       0.18833890      -0.05775957      -0.41985925       1.21422723      -0.36744109
I       13.44848517      22.59144624      25.77667852       0.19975778      -0.19595610      -0.01163427      -2.70956740       0.23984646      -1.44628687
I       12.84928467      15.94495483      13.47663479      -0.11976701       0.22033596       0.02213700      -0.14547452      -3.28848729      -0.23090136
I       19.29848637      20.43035544      22.55071045      -0.11160158      -0.16797138       0.18249087      -1.96891918      -0.41619239      -1.42715652
I        7.48090032      18.79455177      16.11238981       0.13232911      -0.03973142       0.13384567       0.96691095       2.05941343      -0.46119236
I       12.71451843      19.60284752      15.89660056      -0.02763304       0.04970603       0.07597466       2.32143863       2.25077391       1.25236858
I       13.72062218      19.38729016      22.56871914       0.10399475      -0.10278206      -0.31164837      -0.23196937      -3.77152784       0.57387927
Cs       9.88953835      22.64830088       3.26057123      -0.04277779      -0.10388431       0.01564003      -0.65158583      -2.41311415      -3.35128071
Cs       4.19521233       3.94105449       9.45240155      -0.02816930      -0.18822036      -0.07344956       1.91584168       2.46787737      -2.87575730
Cs       3.93493853      22.68747087       9.40542430      -0.08483552      -0.03807375       0.06537541      -1.31634917      -0.23212097      -0.05402897
Cs       9.53591198       2.99516056       3.26147476       0.01931400      -0.06439301      -0.05283185       0.03077933       1.52261573       0.61131620
Pb       0.26676767       0.69739234       6.63204497      -0.22453258      -0.38021355      -0.05462635      -0.21936885       1.70026452      -1.28021940
Pb       6.40103568       0.31631663       6.33379995       0.14005469      -0.00153384       0.08437955      -6.87061230      -0.28776904      -1.10281188
Pb       0.49767615       0.09554260       0.32949650      -0.16099741      -0.14661126       0.05751006      -3.55720243      -2.92709816      -2.18652002
Pb       6.67531215       0.12107810      -0.11891219       0.14453902      -0.14616145       0.20013436       0.79846080      -0.43050185       0.18032937
I        3.36395829       0.88992366       6.89386530       0.00193823       0.16602030       0.19586284       1.77787151       0.52435963       1.93998247
I       10.19806510      25.21951218       6.20327517      -0.14407546      -0.09157240      -0.09941970      -2.70994208      -2.08986009      -2.13632993
I        6.00996944      22.59661270       6.04578609      -0.02073169      -0.05006328      -0.05370401      -2.64380123       0.59226676      -1.84913103
I        7.43554902       3.43254940       7.07294188      -0.09431176       0.00886852      -0.05230343      -2.31413267       1.03727010       0.44832030
I       10.35487299      24.86301693       0.29692813      -0.39376356       0.09209044      -0.06674878       0.06386881      -0.68274733      -1.62897998
I        3.03170240       0.81084807      11.91359218       0.32792979      -0.16230567      -0.00821588      -1.62593178       0.31505124      -2.48952830
I        7.11156233       3.27433209      11.65898990      -0.26927639       0.07406210       0.26466772      -0.73711542      -0.28547979       0.03469002
I        6.16623065      22.29714494       1.01642136       0.15407570       0.09634416      -0.16421055       1.42541499      -0.50647454      -1.45229133
I       11.89945713       0.18895930       9.73924464       0.22377213       0.21972294      -0.17285217      -0.25983815       1.64007601      -4.73694807
I        1.87311971      25.35110501       3.48440283      -0.18063688       0.05916425      -0.11919597      -2.70293252      -1.62158823      -1.15543052
I        6.41167152       0.66001811       3.26847811      -0.01648436       0.14569718      -0.31364404       2.12729962      -3.98094028      -1.84965548
I        7.24367682      24.74913137       9.37859559      -0.01835309      -0.00816696       0.42564464      -0.80944119      -2.12667637       0.24867695
Cs       9.68150169      22.06200544      16.26269744      -0.02791393      -0.08622716      -0.22354563       1.07444546       0.98339577       0.93652100
Cs       4.55847111       3.53094856      22.19707954      -0.16887909       0.04571392      -0.00847552       1.09280371       0.51283085      -3.27047869
Cs       4.23903421      23.14595785      22.35790855      -0.02840891      -0.07682037       0.01750380      -0.15895180      -3.16120757      -2.77728001
Cs       9.09484346       3.13188661      15.89335812       0.18858182      -0.11722118       0.03521068       1.18773320      -1.12493709      -0.86914233
Pb       0.15558776      -0.15230447      19.21166328       0.01853404       0.12183433      -0.07188884       1.42742691       0.94073419       1.57928043
Pb       6.84106287       0.42099002      19.02624210      -0.29111914      -0.01915769       0.08765373      -3.35293846       2.36168761      -3.38172353
Pb       0.08045065      -0.01004645      12.78148460       0.05667861      -0.02511411      -0.02850640      -2.44379369       0.18217792       2.33506671
Pb       6.50037127       0.44540450      12.40676910      -0.23723782      -0.49950955       0.09623916      -1.79645834      -1.39087860       1.18712223
I        3.50920428       0.90370735      19.39138272       0.06870349      -0.11189399       0.06342299       2.69346638       1.26153810       0.74333927
I       10.22142021      24.47491731      18.84009560       0.02027055       0.24886533       0.02027431       4.43233584      -2.99122724       2.45861133
I        6.27906811      22.09347803      18.67906361       0.07728037       0.66467077       0.12839312      -0.79096540       0.77226418       2.39741614
I        7.30209259       3.50933684      19.63314944       0.15752734      -0.12273223      -0.08679531       0.41832045      -4.37947516       1.14043122
I        9.85400779      24.77209916      13.03112343       0.11419790       0.07641770       0.13062921       0.98751867      -0.56367686       1.63018938
I        3.33833343       1.11908490      24.89521233       0.34097270      -0.02494570       0.02982100      -1.90877746       0.31482717       2.79786459
I        7.56376043       3.31620554      24.75658552      -0.21606939       0.00568210       0.26861177       3.84179961       0.28902169      -0.67383958
I        6.23353842      22.31248566      13.48751099      -0.03097152       0.71381387      -0.07064301      -1.88652261       0.19878428       0.11142666
I       13.22846909      -0.04884613      22.34538680      -0.24435833       0.29141659       0.05107070      -1.64269348      -1.28545593       4.72375283
I        1.25160670      24.95856281      16.00728625      -0.04285310       0.12689057       0.01543874      -1.58962673      -0.77903822       0.13806497
I        5.99890835       0.69575876      15.96319117       0.19307546      -0.01839334      -0.10550338      -2.60747643       1.16265015      -3.77740948
I        7.76054047      24.89466478      22.32437786      -0.16791665      -0.01221228      -0.15322499      -0.67595901       4.48586846      -0.34308216
Cs      15.31081480       3.35462442       3.51327993      -0.00373269      -0.02795794      -0.04129673       0.38438615      -0.79318818       0.52467175
Cs       9.61954270      10.18117523       9.58665677      -0.04963525      -0.08544687      -0.02047545      -0.14191479      -2.38216465      -0.83559513
Cs      10.03406542       3.39959224       9.97605409       0.37123750       0.10162471      -0.43587640       0.80915017      -1.67684387      -1.44087372
Cs      16.12046552       9.10806045       4.12683571       0.14679546       0.28039925      -0.18966718       4.47067284      -1.84639840      -0.50751621
Pb       6.88868056       6.36572576       6.28545309      -0.17951431       0.26429015       0.19098366       0.79133578      -0.59443813      -0.48165019
Pb      12.99730325       6.44078179       6.56367941      -0.09254655       0.10094743       0.04482536       0.07510463       2.37668568       0.71121380
Pb       6.94650765       6.71602106      -0.01958289       0.06666594      -0.31807885      -0.09063865       3.13370141       1.71117979      -3.25664764
Pb      13.54903090       6.98170633       0.01351495      -0.25857257      -0.09790307      -0.06681551       0.62688313      -1.09733631      -0.97309836
I        9.94193289       7.21554292       6.87858627      -0.11426670      -0.05324295      -0.02958958      -0.20083224       0.77058816      -0.50666880
I       16.59254910       5.94380350       6.22140277      -0.82486175      -0.13160208      -0.19270289      -1.91053572      -4.05258541      -1.34285041
I       11.98427744       3.58361145       6.10520491       0.15413399      -0.09105743      -0.03968430       2.67533514       1.42737091       3.57308531
I       12.81990665       9.78323395       7.54657538       0.30853599       0.08035156      -0.18051864      -0.08605056       1.54612874       0.05256566
I       16.36595700       5.67508218       0.30558323       0.06848946      -0.04864913       0.10224893      -1.17450010      -0.99675072      -2.03778762
I        9.66438426       6.93240543      12.10460535      -0.01659987       0.04163330      -0.17673838      -1.76405243      -3.72873244       0.58534123
I       13.42401267       9.51984151      12.05691917       0.09082296       0.56788779      -0.15651452       0.70549780       1.41268778      -0.55167011
I       12.40809249       3.39335684       0.15512782      -0.10417722       0.54662536       0.11448125      -0.77061628       0.77505325       0.92686799
I       18.84293882       7.14712671       9.79747555      -0.03899408       0.10870528      -0.11737406      -4.35986666       2.37838875      -2.70839756
I        7.25927244       6.20208459       3.23188203      -0.02621036      -0.19110581      -0.21297753      -0.02850584       0.36624346       2.49032577
I       13.31398842       7.04687745       3.14336735      -0.14201159      -0.08788067       0.13732899      -2.74759040       4.69034887       0.76795234
I       13.41846175       5.73408250       9.58980934       0.06173555      -0.14094909      -0.40245504      -2.46203094      -0.22632333       0.25285214
Cs      15.33043867       3.34495433      15.79186846      -0.10724248      -0.01561627       0.16153744       1.34873766       0.88375328      -0.02708305
Cs       9.79174397       9.83451836      21.81420028       0.00488497       0.13487359      -0.02806319       3.83604011      -0.65961935       0.61622928
Cs      10.13744601       4.48551827      22.64974244      -0.06991895      -0.10731494      -0.25310951       1.88829283      -1.44440138      -1.74962933
Cs      16.59758241       9.01844375      15.97780462      -0.15819105      -0.02368039       0.07201227      -1.25771360       0.31643780       0.73157497
Pb       6.62008900       6.71435976      18.82106193      -0.00898606      -0.10148673       0.11259172       0.22384269      -3.41822868      -0.21020906
Pb      12.85211078       6.75901967      18.99717012       0.13790669      -0.38858372      -0.16045500      -2.43622658       0.89267632       0.30735729
Pb       6.53771351       6.36156482      12.34066352      -0.11227156       0.46077076       0.11731468      -2.04845589      -1.66256520      -2.38387092
Pb      13.22518607       6.60951055      12.52359360      -0.11986104      -0.21138644       0.19556534       0.88815133      -1.79898558      -2.45845000
I        9.87319392       7.37066810      18.45431410      -0.05988229      -0.03125230       0.32170361      -1.26037943       1.28046130       2.93646269
I       16.46923534       5.90221930      19.10578801      -0.14739183       0.08132550      -0.13997597      -0.49047787       2.89282818       2.37289156
I       11.93340273       3.37536469      18.74883442       0.06534304       0.08389461       0.01048254       0.73778171      -1.70009010       1.50645592
I       13.97982247       9.50664611      19.29440576       0.06562895       0.36561259       0.06131104      -1.64134279       1.55426152      -1.33719539
I       16.22541289       5.85085726      13.23506513       0.07843332       0.06478149      -0.06022263      -0.76624235       0.27571023      -0.50993455
I       10.18292741       8.02527040      25.10688779      -0.07580223      -0.32098391      -0.13260728       1.34473297      -1.75021342       1.14023908
I       13.99323860      10.10272263      24.89419612      -0.01211687       0.07928516       0.03658682      -0.54313227       0.25272283      -0.36076525
I       11.76220937       3.68232813      13.23166762       0.15534647      -0.44522942       0.18315466      -0.59433994      -1.38688801       0.87433624
I       18.76459455       7.62372761      22.55448931      -0.00009012      -0.19179182       0.01602454       0.75882320       0.08161982       0.31092236
I        6.54737843       5.73036373      15.85535056      -0.03153652      -0.01045864      -0.23851801      -1.19773464      -0.04748899       0.83362444
I       12.90141691       7.37005452      15.49706216       0.04446107      -0.00577104       0.52777531       0.65544386       0.57575093      -0.00042241
I       13.16049905       6.26360649      22.18862036       0.02261245       0.27752862      -0.11466730      -2.55173900      -2.01960999       2.66853225
Cs      22.21987361       9.78441143       3.38957688      -0.01746954       0.05915086      -0.01598012       1.22420508       1.84447127       0.26266644
Cs      16.58179491      16.07708463       9.81483783       0.04444990       0.21240843      -0.00472871       0.81573248      -2.42871332       1.34045140
Cs      16.08247606      10.54004778       9.28662692       0.09263867      -0.03810734       0.24401701       0.12196218       4.09478720      -0.99810376
Cs      22.19088270      16.29649017       3.30127785       0.00770842      -0.07822646       0.02592970       1.10979610      -0.20865956       4.60141364
Pb      13.47558779      12.76560700       6.41988537      -0.36125726       0.11291352      -0.11755683      -0.90337187       0.47927582      -1.84905008
Pb      19.73576798      13.15793710       6.65186010      -0.04881698       0.02445053       0.03687917       0.76252823      -3.10656428       0.01847813
Pb      12.92527883      13.05101450      -0.04316063       0.06176929       0.01235856       0.08677311       1.36062725      -0.12226853       5.55813793
Pb      19.33341684      12.77032795       0.65006186      -0.01030301      -0.14295691      -0.02421966      -1.00427474      -3.68540566      -0.41251222
I       16.33895535      13.66951522       6.85800087       0.01188180      -0.10246981       0.02804052       1.49714914      -0.05100810      -1.45590484
I       22.84507719      12.77416040       6.12132359      -0.94059965      -0.26072690      -0.21564635       0.35863385       1.36778480      -1.67207071
I       19.10100550      10.09376571       6.74043131      -0.15479099      -0.49415046      -0.00053553       2.54040171       2.56246871       0.29441984
I       19.69276019      16.24693480       6.73538949       0.08617407       0.27251111       0.04313073      -0.50080727      -1.32255894       0.07019820
I       22.59753443      12.75156028       0.76675237       0.14176765      -0.14408769      -0.00069538       2.84635677      -1.20001898       1.26119078
I       16.17477446      13.41913635      12.43014512       0.11516187      -0.07426838       0.02703785       2.61436175       1.58671988       0.79200020
I       20.30792854      16.23595122      12.75321699      -0.14160320       0.08478726       0.06329977       0.10126685      -2.53993616       2.30990647
I       18.97615161       9.69565486       0.29661860      -0.05586681      -0.10401289       0.12504777      -0.46641432       0.84572113      -3.54770051
I       25.18234839      13.73915275       9.83011752      -0.00315806       0.03818342       0.07743111      -3.05856437       1.36147331       4.30081598
I       13.27457522      12.20985061       3.17593698       0.18036844       0.02063186       0.12749382       2.60102415       0.07558262      -3.27062421
I       18.57673307      12.45406740       3.70508416       0.01995702       0.09931365      -0.31467261      -1.53274310      -3.47884691      -0.97369024
I       19.89559017      12.90999935       9.78401206      -0.03641683      -0.00569764       0.16649779       0.15608933      -3.22682263       1.86796796
Cs      21.97172562       9.63306802      16.61950989       0.08980386      -0.16985573      -0.25117095       0.16097982       1.95358166      -2.99374564
Cs      16.61457759      16.61468953      22.61350783      -0.00054576      -0.01016153      -0.11900761      -0.79550337      -1.00674838       3.61226605
Cs      16.36351025      10.65920369      22.18159517       0.11806536      -0.09608625       0.10334206       0.22766279      -2.41541925      -1.84328351
Cs      21.95683442      15.78292739      16.55003719       0.01048634       0.03729193      -0.11628523       0.99611155       1.05695904       2.26670748
Pb      13.31966219      12.84818935      19.39783275      -0.46039195       0.07428980      -0.42589712       5.18512037      -0.42042754      -1.14989958
Pb      19.60199374      13.15606022      19.55016394      -0.13187896       0.09206043      -0.07217268       0.20087438       1.00425233       1.88693835
Pb      12.87164045      13.03598039      12.60287653       0.09349632      -0.35484264       0.23933593       4.35798262      -1.31527303      -1.06250631
Pb      19.23460189      13.02638738      13.09725148       0.17611282      -0.08260168      -0.10791839       1.26884838      -2.00582010      -3.29819541
I       16.20951889      13.52782873      19.87098579       0.21766341       0.27753806       0.07091379       0.21747425       1.70522706       0.99195641