480
Lattice="25.62372079693459 0.2749952261228483 0.19649809192637882 0.30508750645897115 25.788057843430398 -0.04911238836655384 0.1264204902775209 -0.04726001243244156 25.847239188699433" Properties=species:S:1:pos:R:3:forces:R:3:momenta:R:3 energy=-1743.2989501953125 stress="-0.000355269672581926 0.000694305810611695 -6.215922621777281e-05 0.000694305810611695 0.0006651675794273615 0.00038085816777311265 -6.215922621777281e-05 0.00038085816777311265 0.0003255309129599482" pbc="T T T"
N       10.07306125      10.35567984       4.02214201      -0.30126908      -0.90113077      -0.06500724       0.75806105      -0.27216617      -1.15479405
C        9.20440615       9.09326634       4.05572773       1.19203058       1.07844947      -0.77182371       0.06938237       0.49255908       0.34654476
H        9.48813788       8.65475811       3.11060960      -0.66660214      -0.67364559      -0.48142312      -0.05979162       0.11646560       0.00315807
H        8.18014525       9.41372118       4.18579800      -0.49042601       0.11743396      -0.51198743       0.00366333       0.14026712      -0.11304169
H        9.40293834       8.43030792       4.86192482       0.68425708      -0.50104799       0.88513553      -0.03744556      -0.06244715      -0.03838488
C        9.66460791      11.15828309       2.85809587       0.73090408       1.49559091      -0.28840164       0.10877929       0.44574640      -0.08854245
H        8.60138054      11.12081229       2.80637754      -1.10780761       0.38208514       0.17740009      -0.04942213       0.27254329       0.01382277
H        9.96827749      10.67911823       1.92649412       0.55345296      -0.15854986      -0.08256224       0.06605567       0.19770133       0.04451610
H       10.04574931      12.23753752       2.90407827      -0.37891050      -1.33600138       0.04518308       0.18782874      -0.25188690       0.26769584
H       11.10082031      10.17701574       3.96197733      -0.41516461      -0.18546826       0.46903413      -0.01860294      -0.00037796       0.05081946
H        9.84679942      10.81780239       4.89480821       0.32237640       0.74036711       0.57869266      -0.20898733      -0.19209397       0.01010478
Cs       3.83839038      16.29639335      10.02306200      -0.00900476       0.06491680      -0.20269910      -1.54496696      -1.11314689      -1.92497219
Cs       3.57547009       9.51876181       9.67385539      -0.27449782      -0.07639000      -0.01572168       3.67937127      -0.87564089      -2.43132802
Cs       9.32463755      15.81348466       4.49084383       0.08164415       0.10374063      -0.29700611       3.32812766       1.10040235      -2.00478953
Pb       0.05200870      13.24446201       6.48234944      -0.09458010      -0.56803046       0.25178380      -2.41651617      -3.40266364      -5.73596581
Pb       6.19750728      12.67457181       6.76606022       0.05590383       0.07691941      -0.27726805      -2.26278958      -1.31188713      -0.45056335
Pb      -0.00057845      13.07686656       0.31790156       0.18248330      -0.02259232      -0.12663574       1.61695156       3.27267537       1.04999758
Pb       6.37589214      13.08903741       0.17704899       0.07439580      -0.34057710      -0.31191199      -2.61162030       0.58912215      -4.14494379
I        3.09686075      13.00998038       7.06057041       0.30909643       0.07354497      -0.05191218      -1.07911379      -0.69010582      -2.77099646
I        9.63911844      13.30280523       6.95461318       0.04594416      -0.40940630       0.19418091      -0.05044232       0.82434071      -2.77720143
I        5.90063152       9.49268590       6.03843236      -0.07055327       0.09305197       0.08606934       0.59268278      -0.81094142      -0.88536330
I        6.42130569      16.05648960       6.85655509      -0.05904329      -0.27095019       0.09202693       2.10132216       1.21884906       1.89483926
I        9.60700128      12.71845506      -0.49547705       0.06032261       0.07194323       0.05903155      -2.75266721      -1.25668219      -0.74290495
I        3.62055370      14.08705300      12.88633947      -0.13788683      -0.16465338       0.18438172      -1.28371291      -0.94988789       0.91010769
I        6.98526239      15.97919487      12.03804091       0.22984264       0.06233611       0.13030347       2.48011946       0.37107928       1.33782813
I        6.04222618       9.81939487       0.65392194      -0.06126917      -0.18041427       0.01147657       0.11093456       0.98721808      -0.18566652
I       13.24003481      12.91399928       9.94040268      -0.05128334       0.01115236      -0.27293573       1.08262993       1.67441668      -1.21554320
I        0.43765762      12.15495497       3.56458021       0.11641341       0.20248951      -0.07678807      -0.41702987      -0.54223414      -2.21012408
I        6.16423488      12.97949841       3.12489123      -0.06869668       0.23598254       0.64635029      -3.63309346       1.86117821      -2.47866821
I        6.19011210      12.04729302       9.74528658       0.17353337      -0.00584499       0.02598219       0.30698542      -0.61705349       0.54785708
Cs       9.01061653       9.73023332      15.61861299       0.22617726       0.01308133       0.20487170       0.15550014       4.53231608      -0.99581257
Cs       3.72560749      15.81925417      22.99752632       0.01546185       0.02826653      -0.26976677       1.45658814       2.69953757       1.92953725
N        3.29116309       8.76091984      22.83834689       1.37533971       1.10098599      -0.37968808      -0.54679236      -0.47037813      -0.85760679
C        3.14017177       9.74427984      23.97382491       0.77389977      -1.36431503      -0.23647129       0.40168736       0.31377009       0.02065622
H        4.05849844      10.29944200      23.80952492       0.04879415       0.85166110       0.74987012       0.09497561       0.05304578      -0.00003701
H        3.09886821       9.21334465      24.97101820       0.04157032       0.54684168      -0.95526105       0.03142353       0.21649844      -0.09300833
H        2.26464157      10.29409410      23.71498413      -0.76334230       0.81642775       0.25073198       0.29866053      -0.21137402       0.28286620
C        3.28207826       9.38983714      21.48141694       1.10024072       0.50706529      -0.20469051       1.12273419      -0.44546950       0.48890848
H        2.37095582       9.90132537      21.28017601      -1.11825618       0.48148059       0.05868603       0.04351528       0.10393490      -0.17979773
H        3.43841109       8.64073734      20.70512928       0.03186353      -0.30210552      -0.01811176      -0.09620203       0.14751771       0.00641830
H        4.11873844      10.13476962      21.39331860      -0.45900533      -0.50659548       0.34213014      -0.11318370      -0.10054145       0.02964213
H        2.70709517       7.96154723      22.91397989      -1.42550274      -1.36714191       0.02503482       0.19248416       0.20361454      -0.18095693
H        4.24417862       8.41200304      22.88762983       0.53278341      -0.61027527       0.35018461      -0.26108964       0.04452009      -0.16375630
Cs       9.87597641      16.01166350      15.93527261      -0.01676652      -0.09537105       0.13416099       1.59609219      -0.06095351       5.44126940
Pb       0.20532684      13.07158756      19.44683260       0.13774610      -0.11739009       0.16765329      -0.73976592      -2.46284306      -3.38131417
Pb       6.75717933      13.14522880      19.39622294       0.14980644      -0.05394138      -0.06088340      -2.68149630       1.09411609      -0.43667601
Pb       0.85365178      12.70538660      13.22014488      -0.31885667      -0.01558271      -0.20666420      -1.34659917       0.77143902      -2.28925113
Pb       6.56270265      12.78466872      12.72323547       0.20614696       0.10919671       0.27153182       0.91245774       4.43225453       2.46350252
I        3.70812608      13.57788048      19.06977120      -0.15320094      -0.18835197       0.26184601      -1.05754759       0.96259730       1.22207070
I       10.02005932      12.20792490      18.64886209      -0.26114860      -0.04736998      -0.00694800      -2.84169120       1.38029578       3.12195179
I        6.81626970       9.92019946      19.04482037      -0.16695343      -0.15832387       0.00803227      -3.04123104      -3.40855334      -4.52111053
I        8.00309140      16.14787725      19.72440814      -0.09542053      -0.26191660      -0.08566747       3.59828077      -0.04237109      -0.21406591
I        9.75568754      12.33739876      13.04630839       0.01170599       0.09152826      -0.16285460      -1.24978181       0.85124820       0.30169648
I        3.39737794      13.74993645      25.84185580      -0.15073821      -0.18958542       0.25833736       0.32870838      -0.24824232       1.01065797
I        6.99921550      16.10946395      25.65048885       0.15630078      -0.46373792      -0.06184697       0.77780591      -0.40120780       1.72007760
I        5.93813785       9.74979556      13.68256577      -0.22238005      -0.14335681      -0.15864316       1.95460152      -0.78804085       1.13809805
I       12.47536952      13.09392563      22.97348932       0.22953432      -0.17717446      -0.23097786      -0.99108944      -1.53760367      -1.01868579
I        0.17057104      12.96078105      16.35589097      -0.00000375      -0.03540332      -0.18319543       3.24921022       1.51157322      -1.20158867
I        6.64922792      13.50370928      16.18235587       0.09722249       0.03040670      -0.19363636       4.48475742       2.79058494      -1.23988916
I        6.71309078      12.90121320      22.56203445      -0.06298025      -0.04968589      -0.03589281      -1.29644162       2.96343439      -0.70082679
Cs      15.52990695      16.47236612       3.41108198       0.18883537       0.11637505       0.06050373       1.08399980       2.15702810       0.33216698
Cs      10.48679991      22.65775562      10.43411049       0.03454928      -0.19734912      -0.17163450      -0.90009634       0.87700441      -1.67028296
Cs      10.35518114      16.16314448       9.92182220      -0.21222498       0.02925796      -0.02833909       0.90297615      -0.62867243      -1.41531997
Cs      15.70314175      22.06453152       3.60019869      -0.03904037       0.17151186       0.00969106       0.62845697      -0.59494062      -2.57730077
Pb       6.49352025      19.16383571       6.50206932      -0.02582909       0.19104572       0.16882341       5.29779709      -0.64306975      -1.81990501
Pb      12.73499529      19.28732773       6.73145286       0.08445751       0.27579666      -0.10994568      -1.67192233       0.69077587       0.39223460
Pb       6.86796697      19.09470333       0.43031680      -0.12558264      -0.00866267      -0.08855847      -3.36102377      -0.96164962      -1.46420073
Pb      12.85008653      19.36471099      -0.16864244       0.22597220      -0.02826459       0.29153617       1.58971529       1.60920374      -0.11024807
I        9.67038813      19.76916981       7.13543250       0.02749570      -0.12784835       0.05997288       1.39461122       0.60691797       0.78786625
I       16.20137124      18.74642136       6.75116266       0.12151143       0.11123550      -0.25070674       0.24710406      -2.46042277       2.65330842
I       12.48360463      16.28248349       6.81017793      -0.04752240      -0.31513129      -0.06649673       2.05876986      -1.52653034       0.05640403
I       13.18063781      22.50269326       7.12817755       0.24065203      -0.41798771       0.06603646       2.16440192      -0.35668141      -0.16123547
I       16.86909470      19.50405851       1.18670668      -0.21052451      -0.20866554      -0.08887492       0.18621153      -1.20764435       0.67258233
I       10.02437794      19.45850009      12.68731292       0.08527298      -0.03581723      -0.02209687       1.63362085       1.45647982      -1.34084003
I       14.04918932      22.32212295      12.43623426      -0.19061160       0.03240555       0.32380378      -0.62139048      -2.49260508      -1.28410281
I       13.51198988      16.22064056       0.10316429       0.03596524      -0.00267501      -0.07088622       2.60625289      -0.74101793       0.67079141
I       19.01379988      20.12752698       9.80138465       0.05818384       0.04440866       0.05149334      -1.17154435       0.01273380       3.09382015
I        7.43571509      18.80909446       3.42560096       0.02521801       0.00253170       0.09166028      -1.01213039      -1.76733142      -0.61108756
I       12.20517600      19.50610581       3.56866679       0.22999895      -0.04169822      -0.10329844      -0.61886842       0.18580652      -2.45621331
I       13.31762608      19.05358608       9.89606656      -0.00794714      -0.04823179      -0.03336802       3.24526405       2.01996970       0.15882739
N       16.21472295      16.38326298      15.46627680      -0.00988114      -0.50338035       1.02160734       0.69220529      -0.05227285      -0.42638310
C       15.13590480      16.46910177      16.51644125      -1.13155940      -2.37930275      -0.42211961      -0.52427469       0.82298447      -0.40296705
H       15.13912609      17.39740985      17.04082412       0.57189360       0.92301512       0.43807295      -0.09659548      -0.03691589       0.16528523
H       15.16560801      15.58408565      17.25854539       0.25392662       1.16324550      -1.17921536      -0.06710340      -0.29346982      -0.04472482
H       14.16214520      16.43100158      15.94942358       0.65587869      -0.10241562       0.52345381       0.10414971      -0.16956592       0.00315538
C       17.60343188      16.17859400      15.95063426       0.65432857       0.46961681       0.98999596      -0.94780970      -0.64757386       0.99292590
H       17.58824940      15.45309436      16.78370571       0.01819818       0.08539941      -0.35358757      -0.08174884       0.09989526      -0.24009664
H       18.03778277      17.16725505      16.35698991      -0.59052406      -1.25997181      -0.65171451      -0.02050882       0.04639782      -0.52485891
H       18.15311689      15.79214146      15.08024305       0.29523787       0.15561776       0.38138366       0.02008770       0.14043925      -0.00399289
H       16.27497480      17.30257727      15.04088634      -0.39236604       0.71686871      -1.09062229       0.03697912      -0.06527699      -0.05995638
H       16.04771536      15.66753773      14.70737049      -0.23719374       0.42570699       0.50684490       0.00116437      -0.07647208       0.01520529
Cs      10.10948933      22.64209245      22.55937912      -0.03468974      -0.02554558      -0.08210436      -1.16448912      -0.99115024       1.65850036
Cs      10.48650853      16.11433467      23.16917180      -0.20832657       0.11213451      -0.07050547      -0.96704883       1.33530401      -6.00151992
Cs      16.64771150      21.74205849      16.39564415      -0.15052559       0.05874419       0.05130576      -0.61799281      -0.67788770      -1.14076869
Pb       6.93685802      19.12750346      19.83683016      -0.14658590      -0.08395980      -0.19811836      -2.23544448       1.08365648      -4.45832688
Pb      13.13115014      19.07671419      19.41105253       0.01868083       0.03735878       0.05107074       2.25988951       1.07286475      -2.29299231
Pb       6.84225595      19.11908969      13.28200848      -0.06960064       0.06637398      -0.29878024      -0.42627933      -3.30332136       2.40371378
Pb      13.11127233      18.88848710      12.95250390       0.09949037       0.34959894       0.13869422       0.28946220      -1.24278732       1.86539312
I        9.97188818      19.64840805      20.21072921       0.40153126       0.07105958      -0.11940017      -0.25649227       0.33824590      -0.84632848
I       16.53261456      19.19111628      20.08518702       0.07035019      -0.06647875      -0.08976399       2.02930880       1.92734598       0.12018896
I       12.19271193      15.86627983      19.34326916       0.06860666       0.21922318       0.03158534      -1.53039598      -0.90094341      -0.55774975
I       14.19814633      22.34481693      19.38473031      -0.11979408       0.04578324      -0.02014488      -1.89697749       2.84549689      -1.99039928
I       16.60222216      18.51109781      12.84855859      -0.29485829       0.10883765       0.05595760       0.62582288      -2.53866139       2.11172830
I       10.02533261      19.84521316      25.70200429       0.00955199       0.01961126      -0.12461100       0.47284510       0.48209592       1.86793122
I       13.99117499      22.22286599      25.74815981      -0.11812873       0.01584241       0.19920570       0.23028329      -1.62471277      -3.58300164
I       12.32223587      15.97780994      12.96627956       0.08913815      -0.30649179       0.14216678      -1.15967072      -0.05332044      -3.56041574
I       19.78803312      20.25355097      23.17814170      -0.05541670      -0.14600117       0.04591764       0.45412110      -1.37531634       0.97470743
I        6.53571638      18.58938315      16.26637639       0.11282319      -0.13475975       0.06696048       0.11390511      -2.05996035       0.89362201
I       12.78259897      19.52792297      16.29904611       0.12883983      -0.14375704      -0.06629831      -0.83769237      -0.24108980       1.37389890
I       13.30232263      19.02958614      22.68212802       0.03050924      -0.02285113       0.00094518       0.54888089      -2.19764034      -1.82755921
Cs       9.39079773      22.12184754       3.15037526       0.10985535       0.09793988       0.11690435       0.82637642      -2.49771599      -1.13210691
Cs       3.01532270       3.41403765      10.21132621       0.11164382      -0.17421113      -0.10920904      -1.23287470       0.84250035       0.26106537
Cs       3.92276885      22.74119203       9.45164480       0.12279273      -0.05622477       0.18424301      -1.23820843      -2.25838168      -1.55134768
Cs       9.81274384       2.15866864       3.63876949      -0.30101989      -0.02978177      -0.24647859      -0.69687253       0.03058157       0.00952656
Pb       0.24347855       0.05675332       6.69685761      -0.10103152      -0.09724585       0.05372564       0.13622566       0.44329906      -0.83389320
Pb       6.41921287      -0.01485467       6.71816980       0.18954169      -0.14082031       0.06901589       0.21994143      -5.68988328      -4.71295707
Pb       0.09751794       0.25870784       0.17474141      -0.00186490       0.03763742      -0.19927241      -4.63604508      -0.05465767      -0.61615880
Pb       6.57418294      -0.19454735       0.14975096      -0.01611156       0.09566350      -0.04901717      -0.14781972       0.56879833      -4.40211692
I        3.38467260       0.46345337       7.84478796       0.15850971      -0.05965876       0.05016320      -1.30952610       0.73347422      -0.66700635
I       10.00592552      24.57269384       6.42722389      -0.26705614       0.20794417       0.00354326       0.61544403      -3.85394158       0.94118532
I        6.51121959      22.40376284       6.45662458      -0.24861788       0.13836416      -0.10434831      -0.73754354       1.19638742      -1.57104608
I        7.12902645       3.14971694       6.46997342       0.04607251      -0.10296132       0.21122994      -2.25031247      -1.09113702      -0.86223193
I        9.99461791      24.58151040      -0.08921119      -0.07404407      -0.05129751       0.05251993      -0.03707747       0.58520013      -0.57161226
I        3.26959087       0.14699520      12.38795942       0.04169066       0.03142591       0.00965729      -2.24782255       0.00681008      -1.73791445
I        6.79130346       3.11988943      12.01338252      -0.00110204       0.07133922       0.08155368      -0.59123495       0.86318125      -1.32816626
I        6.25822726      22.02087091       0.45176541      -0.11263761       0.67624466      -0.01213206      -0.03463199      -0.32835758       2.06342288
I       13.07659899      -0.10360102       9.97566548      -0.13419738       0.16532949       0.07246898       1.56472186      -2.26465836      -0.45252549
I       -0.06832587      25.65596109       3.48041857       0.11910413      -0.06249532      -0.20844958      -1.23051751       0.35566774       0.66969934
I        6.70348597      -0.67002340       3.27641533       0.05345378       0.08891176       0.12381975       1.67618456      -0.29609779       3.75657129
I        7.70049157      25.02452421       9.72056663      -0.23755584       0.13933607      -0.08014096      -0.19614749      -0.25549795      -2.74016330
N        9.52856298      22.94247141      16.93141256       0.09494772       1.28270028       0.22361761      -0.18881443      -0.43212510       1.10994229
C       10.86957337      22.58908510      16.51700579       1.91211954       2.33775331      -0.30392952       0.95142607       0.05428569      -0.54964755
H       10.85338011      22.41335046      15.45970739       0.00919560      -0.00636292      -0.93413319      -0.10104684       0.25645004       0.19160076
H       11.06733134      21.66055038      16.95305040       0.80020024      -1.42783980       1.08904583      -0.07133627       0.22785267       0.11438183
H       11.67374002      23.41816291      16.72884822      -1.54316900      -1.50944497      -0.11237466      -0.05465602      -0.26607150       0.26473734
C        8.60836085      21.81310813      16.82186304      -0.78012166      -0.70828754       0.01728716       0.65298119       0.45340106      -0.28963387
H        8.85706845      21.09764823      15.98889968       0.54663326       0.39274215       0.95742053      -0.04281892      -0.06008147      -0.00248823
H        7.66498219      22.19414563      16.46246544      -0.75851120       0.29553369       0.23288294       0.07494883      -0.17091919      -0.19537463
H        8.49702863      21.40669132      17.84820142       0.00215830      -0.44674631      -0.70547086      -0.18333350      -0.03888169       0.08365882
H        9.20071017      23.71934779      16.32908989      -0.20138676       0.27809321      -0.07663831       0.03653885       0.02549271       0.11660770
H        9.55267730      23.37372202      17.90119052      -0.10584436      -0.27330047      -0.41841604       0.05637589      -0.14911638       0.14976745
Cs       4.17863291       3.38871527      22.59163589      -0.16941723      -0.19304411       0.05323041       1.63578890       0.48167994       1.31656973
N        3.61012521      20.96416573      22.43133705      -1.02130879       0.87238889      -0.26181483      -1.57074562      -0.23870787       0.40744268
C        3.36832154      22.42622691      22.91735713       0.13930520      -0.46898097       0.54800786       1.09450620       0.95136929       0.45709581
H        2.54155905      22.38137503      23.61952048      -0.39283573      -0.21493602       0.16225246      -0.42839646      -0.13769801      -0.13403544
H        3.08379834      23.20623612      22.19232581       0.41475682      -0.58369181      -0.48088881       0.24683730       0.06057852      -0.06573250
H        4.23034357      22.74497664      23.53149621       0.01352233      -0.17631724      -0.42521003      -0.04432672       0.00941955       0.15387582
C        3.54681295      20.01120108      23.56797424       0.12758687      -0.08233583      -0.23791085      -0.82958383       0.97773560       0.28176654
H        3.73084360      18.97346768      23.28802155       0.28487889       0.01367942      -0.39428231       0.15553773       0.05840862       0.02472119
H        2.56610806      20.04363939      23.96798903      -1.32336182       0.20131899       0.35018713       0.16531612       0.17037554       0.12345266
H        4.19760661      20.29076083      24.38487239       0.69093474       0.37707263       0.03458309       0.09073822       0.14068950       0.11556680
H        4.55776207      20.88964284      22.05104448       0.21450852       0.13788296      -0.55821151       0.06873548       0.03311096      -0.15612990
H        2.89381730      20.69617370      21.65838830       1.14972887       0.33509206       1.06433566       0.39585974       0.16587187      -0.02831043
Cs      10.22747598       2.42900653      16.37215396      -0.15156713      -0.01672724       0.27939767       3.82894317       0.77264221       1.23416442
Pb       0.14710092      -0.32013944      19.35925495       0.06127834       0.18286828       0.18976472       0.09683007      -2.38454512      -2.00795274
Pb       6.82124858      -0.10949187      19.35509204      -0.44415955      -0.03075412       0.11983790      -1.67960197       2.07851019       3.25838584
Pb      -0.07051609      -0.33045497      13.06629121       0.08055056       0.05822736      -0.31550114      -1.40326583      -2.61151558       0.90468939
Pb       6.73379596      -0.10531801      12.84153880      -0.08226683       0.01187080      -0.14144671      -0.74796959      -0.44652447       3.61241946
I        3.37274170      -0.00438531      19.45937367      -0.00775401      -0.02409473      -0.02759364      -2.17221762       0.83354424       0.41373094
I       10.12337331      25.53733221      19.40335402       0.26931224      -0.13441345      -0.06508955       0.51854020      -0.25851196       4.66628644
I        6.64765946      22.23538554      20.12624480       0.01631526       0.30166480       0.05265705      -0.99379150      -2.77242382       1.97156153
I        6.44527426       3.08504756      19.40665566       0.13406234       0.00881395      -0.01218171       0.01732916      -3.68578741      -0.69108024
I       10.18559775      25.05998741      13.21985757       0.09000609       0.19981577       0.07907694      -1.34144609      -2.35620668      -1.60798442
I        3.64011821      -0.12442042      26.21423638      -0.31770964       0.08851965       0.04076554      -1.56201559      -1.42293242      -0.05398572
I        7.49067700       3.07746449      26.35523137      -0.13927936      -0.28670965      -0.05505262       0.23283880      -0.52829047       2.80991699
I        7.24374140      22.43754009      13.13837249      -0.29772341      -0.11908380       0.01607295      -2.22980723       0.29369363       0.51273672
I       13.26988137      -1.10653405      22.73534082      -0.09888780       0.15850193       0.02627253      -1.28456451      -0.03490832       0.99373212
I        0.29654175      25.36361667      16.04002766      -0.19080979      -0.01867023       0.46755273       0.54680692       1.30870570      -2.33607684
I        7.16358939      -0.03465250      16.05882326      -0.04658937       0.04302634       0.22612559       2.33620029      -0.44745619      -2.46749287
I        6.85854175      25.99163124      22.72469513      -0.01153127      -0.08525643      -0.06177336      -0.01790941      -1.64163867      -0.70808498
N       15.87682137       2.89989221       3.93403185      -0.66041991       0.40395832      -1.27806055       1.06705360       0.69638893       0.00806798
C       17.19095746       3.37156480       4.32734252       1.38018250      -1.10031533       2.92799123       0.46958236      -0.10753831       0.32661674
H       17.33345909       3.12849325       5.44836028      -0.10975011      -0.01735008      -1.54800029       0.07110352       0.30415828       0.02970080
H       17.26246354       4.45625483       4.36318933      -0.09249081       0.34089943      -0.85978889       0.01253061      -0.01805056      -0.10610504
H       17.97238201       2.85357192       3.75424998      -0.12902886       0.23015766      -0.10527704       0.18057462       0.04768532       0.00135770
C       15.61449987       3.33344637       2.47730756       1.45535003       0.55924848       0.90312034       0.83484848      -0.31041597       0.61923841
H       15.58376204       4.45816102       2.36152752       0.37728586      -0.98109205       0.31164186       0.04598987      -0.02469667      -0.05293322
H       14.70396901       2.93507383       2.16273873      -1.83604007      -0.75510216      -0.42393667       0.05452980       0.11260664       0.00731611
H       16.39972923       2.82083686       1.89451344      -0.05109592       0.54979571       0.05783513       0.13199325       0.07766882      -0.15891614
H       15.19721923       3.31036168       4.60445054      -0.21362726      -0.31030311      -0.36115166      -0.29842655      -0.10069397      -0.01298862
H       15.81615059       1.85200847       3.96020970      -0.04499586       0.56296953       0.27054738      -0.05693143      -0.00649078      -0.32423503
Cs      10.95532965       9.97652262       9.36580135      -0.05895550      -0.08966223       0.22707571       0.53053078       0.90919024      -0.94750201
Cs       9.88246349       4.32146340      10.34496138       0.10452541      -0.11741658      -0.23754090      -2.71266231      -0.68564913       1.44586093
Cs      15.90308311       9.96151780       3.44033472       0.07664222      -0.07642872      -0.09666250      -1.04498069      -0.28838584       1.04714407
Pb       6.39564610       6.36329248       6.41098984       0.12878937      -0.14726968       0.03074379      -0.09775788      -1.75921373      -3.08348652
Pb      12.52921897       6.70185169       6.30890355       0.35615987      -0.18167212       0.23938506      -1.93879806       1.94165559      -0.60301251
Pb       6.80424427       6.13771388       0.27955132       0.03038791       0.31280577       0.14131677      -0.16423261      -3.08841220      -0.25100561
Pb      12.32893688       6.10824209       0.25386610       0.00087196       0.20382857      -0.14063313       0.17358145      -2.33082302       2.08036356
I        9.66608101       6.86677711       7.22945047      -0.08212938      -0.02922623       0.20748578       0.93089060       2.00330789       1.77835407