880
Lattice="27.19723519832578 0.2306452349892539 -0.092607024549012 0.21043709923577733 26.569121364139185 0.25283252967643727 -0.11728889679931297 0.14605756745707393 26.996023832209758" Properties=species:S:1:pos:R:3:forces:R:3:momenta:R:3 energy=-3846.12646484375 stress="0.0009099488961510359 0.0008957952959463 -0.0001655891683185473 0.0008957952959463 0.0003179417399223894 0.0001959477231139317 -0.0001655891683185473 0.0001959477231139317 0.0019366191700100897" pbc="T T T"
N        9.75662157      10.95083080       5.21338739       1.13954352      -1.67969589      -0.55382507       0.13346667      -0.98967171      -0.17899805
C        9.87464383      11.70762745       3.92362250      -0.60332678       0.33915346       0.06675934      -0.00239271       0.17370227      -0.71155594
H       10.91581014      11.85518626       3.63101610       0.23796298      -0.54087179       0.05856543      -0.10876346      -0.25526382      -0.19019306
H        9.47827513      12.73194460       3.97812307      -0.27359260      -0.16130394       0.40695000       0.12313600       0.29266156      -0.16398869
H        9.26672516      11.16806521       3.19400034       0.28054094      -0.11158366      -0.33988010       0.12002875       0.07432086       0.01022601
C       10.85911742       9.81150424       5.30357018      -1.27541718       0.08241373       0.70070283       0.37039317      -0.80169449       0.51537808
H       10.96691938       9.47111449       4.26734389       0.36310660       0.18558613      -0.00420861      -0.30476145      -0.15390012       0.21480730
H       10.46150847       8.88258804       5.87865668       0.55765828       1.59366065      -0.46235996      -0.17711023       0.02187797      -0.05024740
H       11.78846552      10.29166084       5.74391166      -0.85443588      -0.69194581      -0.55117079       0.00800840       0.03927143      -0.16205840
H        8.79280525      10.55183523       5.39498797       0.24601491      -0.00734010      -0.36719162      -0.00078858       0.09215438      -0.28616996
H        9.87884874      11.58055639       5.99197708       0.33108036       0.88436985       0.86833419      -0.02318041       0.16885720      -0.01580462
Cs       3.17393489      16.67961960      10.95708260      -0.00487166       0.01093584      -0.12006619      -1.00739343      -0.16569963       1.64014915
N        2.37204433      10.36211260      11.14817940       0.33682900       0.06134358       0.92194514      -0.61709078       0.22703090      -0.15385384
C        3.07751866      11.44409238      10.38289708       0.00187802       0.70694187       0.34721109       1.03237643       0.06224843      -1.19993014
H        4.11329552      11.45848309      10.77166850      -0.23090938       0.16183416      -0.39800405      -0.21197399      -0.05636888       0.07574348
H        2.58317788      12.48476079      10.51103901       0.58626229      -1.54845832      -0.13261931      -0.21500870      -0.22257798      -0.02961887
H        3.04973559      11.10912824       9.33651358       0.10852409       0.33774488       0.13111624      -0.18793093       0.07925888      -0.14318660
C        2.17215648       9.13785699      10.34642916       0.73670176      -0.88056754       0.24907464       0.13990322      -0.39008423      -0.47673763
H        3.18297482       8.71942447      10.16960857      -0.32231087       0.07517183      -0.15451977       0.10327736       0.04485958      -0.02780195
H        1.71153060       9.39346846       9.40343228      -0.31927602       0.04680520      -0.38796365      -0.03722909      -0.07332584       0.15661886
H        1.60772383       8.39167600      10.92780675      -0.07534551       0.22151613      -0.21779338      -0.04801568      -0.09371586       0.04781209
H        1.46797593      10.72154440      11.52089044      -0.00257426      -0.09584096       0.20946567       0.03834109       0.06868555       0.47510888
H        2.91677287      10.03821797      12.00251802      -0.56589162       0.74244714      -0.76186263       0.19371456       0.16219416       0.13541728
N        9.45050042      16.52729684       3.83322079       0.98760191       0.79090488       0.49971907      -1.23361385       0.42130142      -0.46268961
C        9.48651670      17.66931746       2.90999762      -1.03694055       0.67095391      -1.44638694       0.33681241       0.29856219      -0.84831239
H       10.30315214      17.51532862       2.11070021      -1.18994542       0.36798729       1.13660754       0.03710707       0.31375029       0.27458474
H        9.57208135      18.60759140       3.50387190       0.58934011      -0.52693957      -0.20714923       0.06900027       0.31707048       0.13815174
H        8.43324849      17.78207029       2.51851587       1.08865657      -0.27465055      -0.30778598      -0.16355853       0.09468912       0.27093540
C       10.71699079      16.56162681       4.66394619       0.46679783      -0.31127852       0.09554112       0.28762230       0.83616655      -1.04648470
H       11.29620443      15.67940781       4.31839419       0.10500788       0.51116065       0.41948673       0.10701855       0.12945363      -0.17575214
H       10.43597739      16.49642477       5.73180177       0.13255557      -0.24556459      -0.31247113       0.34893119       0.02592368      -0.02500594
H       11.32010165      17.52315490       4.54475864      -0.92451045      -1.03591119      -0.23954203      -0.27800320      -0.05022047      -0.03403633
H        9.25351504      15.62971084       3.38518878       0.36459667      -0.35714852      -0.48434621      -0.03188729      -0.08277618       0.01856002
H        8.62898995      16.64394508       4.44832909      -0.43020492       0.31414668       0.63979341       0.02365682       0.06351644       0.24914000
Pb      -0.14499081      13.84970142       7.26610886       0.58251878       0.02700595      -0.03677305      -5.33444084      -0.24147465       3.42300069
Pb       6.54373966      13.38517495       6.46046896      -0.40588118       0.05126628       0.10736670      -1.21185632       0.35653862      -0.51487850
Pb       0.50687516      13.19616679       0.22538810      -0.55121408       0.16311911       0.08673319      -4.74973538       2.14716388       3.66186276
Pb       6.81367813      13.73896104      -0.05978542       0.19467306      -0.15491149      -0.10241080       0.71525584      -1.84613468       0.21927320
I        3.45508490      14.63889240       7.26382507      -0.01993130      -0.02853753      -0.05506820       1.72875930      -3.19092171      -0.85721030
I        9.27769570      13.73723607       7.46934368       0.35578716       0.08594705       0.03036831      -0.85548186       2.73616465       1.15198826
I        6.79219452      10.05238965       6.87009645      -0.20861049       0.02940679      -0.10614781       1.57198115       0.23798965       0.25465994
I        7.27784828      17.21503793       6.37235845      -0.42948867      -0.30579802      -0.14071196      -1.35241405       2.00511795      -0.27336818
I       10.31203302      14.19017007      -0.06411887       0.12048560      -0.08854630       0.08894653       0.22587210       1.42475257       1.79915682
I        2.88240352      13.57707149      13.71674592       0.45555864      -0.02791383       0.05315449       3.21807758       0.63526262       1.30901198
I        5.85155542      16.90386316      13.85869989       0.03782239       0.17296538       0.09154701      -1.29555727      -2.23178420       0.74225928
I        7.64814363      10.50869844      -0.09086103      -0.03807087      -0.17935976       0.06021017       0.32410031      -0.92322485      -1.20017096
I       13.88865760      12.83772043      10.03744589      -0.15309266       0.11999749       0.36981147       0.63718005      -1.39310504       2.34409268
I        0.36212620      13.71601175       3.42097441       0.04655251      -0.08885139      -0.00485138       1.73597024      -0.03476908      -3.81859960
I        6.70899388      13.65392288       3.25750631       0.18069770       0.09793741       0.10574345      -1.15787341       0.48652825      -1.30705333
I        6.05137207      14.21186185      10.35985670       0.19154724       0.00317246       0.12960746       2.38979459       0.57902912      -1.39670796
N       11.09948754       9.95070857      16.69110266      -0.68213749      -0.29564152      -0.63107949      -0.70378185       0.49412504      -0.18045490
C       10.83003189      11.08302731      17.60171066       0.16999000       0.33281003      -0.79444342       0.01330287       0.49366276       0.72264641
H       10.56110344      11.89295447      16.92200205      -1.03456020       0.18084614       0.35020422       0.03200083      -0.21322991       0.09780515
H       11.73082911      11.48174350      18.07758396       0.14315110      -0.50420690       0.23128493      -0.08258003      -0.15657738      -0.28367958
H       10.11509170      10.63726314      18.29168948      -0.31424234       0.90240935       0.27515871      -0.15072646      -0.03088859       0.21162162
C        9.83718635       9.13231762      16.32002051       0.15747214      -0.89496113       1.76619385       0.84777047       0.28651609       0.75255909
H        9.05356551       9.13468955      17.19646474       1.48836710       0.17321962      -1.40982549      -0.04891696       0.09795358      -0.23067074
H       10.20877065       8.08069663      16.15839713      -0.43107629       0.77643035       0.03518830      -0.02043474      -0.08087664       0.18923945
H        9.39272725       9.53304146      15.41210804      -0.06575146       0.27327183      -0.15048193      -0.06654842      -0.12207639       0.02719675
H       11.77403442       9.39100868      17.21106105       0.34867431      -0.85730577      -0.24434360       0.13663631      -0.00326786      -0.19668178
H       11.56028142      10.25002604      15.79321880       0.12578362      -0.12057225       0.48231551       0.06011752      -0.14163628      -0.11768656
N        3.59287252      16.73391777      24.50746287       1.19467442      -0.67538651       0.52850329      -0.56311490      -0.15833429      -0.01541551
C        2.59554945      17.82492650      24.52226240      -0.03442955      -0.89275156      -0.31554367      -0.41267726      -0.50331967       0.76430671
H        3.06993618      18.73417995      24.22711838       0.57540531       0.86192826      -0.29973065      -0.14612660       0.19788438      -0.24269967
H        2.24115686      17.92908245      25.55777826      -0.42056044      -0.06209075      -0.38341992      -0.23093991      -0.13095817       0.18125305
H        1.88386827      17.55231351      23.72825218      -0.38904488       0.07326422       0.55476540      -0.14800595       0.02407249       0.02720598
C        3.96547345      16.12969204      23.16164252      -2.47930430       1.80438463      -0.86472621       0.89303805       0.31974231       0.61882246
H        4.72773142      15.42056045      23.30913866       1.08939734      -1.00612913       0.09222197       0.07076933      -0.17786536       0.01461191
H        4.21627543      16.90199332      22.35672293       0.07437087      -0.44879296       1.31103222       0.02925723      -0.17161367      -0.24824293
H        3.00687378      15.69232376      22.79955249       0.57337140      -0.24715909       0.10201679      -0.09188877       0.17299038      -0.08258556
H        3.29175068      15.96883874      25.17703939      -0.12422978       0.14785796      -0.64557772       0.48234745       0.04608772      -0.00636332
H        4.47252704      17.02768585      24.99355192       0.01471779       0.25071984      -0.15393016      -0.19176682       0.08434130       0.27870857
N        3.35334834      10.21437358      23.28632948       0.60306224       0.25034596       1.79170877      -0.59548747      -0.12642336       0.50392920
C        2.34178546      10.35745346      24.44705475       1.20677300      -0.16519268      -1.00565080       0.04007515      -0.11179735      -0.21324888
H        2.52940333       9.55226311      25.19016189       0.21368753       0.52076327      -0.26540540       0.14235616      -0.15708149      -0.15516861
H        1.33095558      10.20596278      24.04946168       0.04589751       0.39400581      -0.04291566       0.02728380       0.08327581       0.13078494
H        2.61408259      11.38161214      24.76640609      -0.76142012      -0.42100098       0.55406026       0.15625000      -0.11813457      -0.15365874
C        4.78614133      10.37541330      23.77008522      -0.66469356       0.36470461       0.76017056       1.49772389       0.41043553       0.38369457
H        4.90921364      11.44396021      24.14650355       0.08604449      -1.16339032      -0.57469658      -0.30689060       0.06033146       0.25247081
H        5.49258054      10.06095774      22.98904568      -0.11459585       0.34262153       0.00498906      -0.13454793       0.10032904       0.19203105
H        4.84945785       9.68207144      24.61644201       0.35299828       0.05483377       0.11112645       0.07434176       0.29437154       0.03293732
H        3.22953795      10.95700578      22.62816301      -0.54860223       0.84573685      -0.99873128      -0.10726453       0.17481712       0.03831073
H        3.26447710       9.33883687      22.80914247      -0.27885287      -1.17714677      -0.62018252      -0.20284242      -0.10499014      -0.09545377
N       10.81850606      16.22504779      16.30855993       0.62574922       0.40593266      -0.92935247      -0.25356757      -0.03477199       0.09459484
C        9.40795493      16.47579109      16.19451665      -0.93196126       2.47968053       0.76579185       1.38132755       0.54732039      -0.50596826
H        8.84392259      15.94345195      16.99305338       0.24039682       0.23561883      -0.60796661       0.03694652       0.06549630      -0.00604624
H        9.13652939      16.27997094      15.19207547      -0.77412840      -0.71261460      -1.07990381       0.09052079       0.01439702      -0.16355436
H        9.30548584      17.60305170      16.30380214      -0.27571578      -1.11343178       0.17557327       0.14461748      -0.08258441      -0.16314529
C       11.30624021      16.71062574      17.58298617      -0.14340499       1.24109662       2.35023741      -0.71850296      -0.30144896      -0.02987729
H       12.28802380      16.32027154      17.61717185       1.51937536      -0.15040235       0.48002615       0.12704501       0.18701516      -0.12254503
H       10.73392692      16.20946237      18.40401964       0.18490789       0.24963215      -0.55700362      -0.11140909       0.03131686       0.19586042
H       11.32156378      17.84832079      17.86680404      -0.33171613      -1.68443131      -1.31084870      -0.08434376      -0.02758574       0.26991737
H       11.38970215      16.63498820      15.47485166      -0.52181859      -0.48629977       1.10104116       0.18356489      -0.39264904       0.04797507
H       10.94709851      15.20084172      16.29452036       0.45342024      -0.20000130      -0.39522848      -0.04365557       0.13783735      -0.10247330
Pb       0.02403903      13.27303135      20.59460157      -0.20819772       0.02643689      -0.04962541       0.16170298      -0.75982277      -1.34448287
Pb       7.01200422      13.38799210      20.26276275      -0.24836657      -0.06685275       0.03254841      -0.87893415       4.29089957      -0.59821028
Pb      -0.11190190      13.43762894      13.81932621      -0.34449759      -0.09026596       0.03193770       0.87897678       2.35740128       5.31175659
Pb       6.14425776      13.55499169      13.82877851       0.02177472       0.04300963      -0.09868857      -2.21203662      -2.29556733       0.94127285
I        3.76204521      13.12613699      20.40000512      -0.24708533       0.14646882       0.20365849       2.64633754       1.16255629      -2.74881755
I       10.02206790      13.53494131      20.45194388       0.43375821      -0.01589255       0.08317539       3.78297782       3.09984829      -0.16756523
I        6.77006029       9.95566836      19.82442868       0.03015570      -0.09433093       0.05336216      -2.75947073      -3.28943644      -0.64271408
I        7.11188751      16.45549856      19.93017743      -0.16816398       0.22795022      -0.02456496      -2.67225081      -1.85380892      -0.57161379
I       10.15933809      13.56106419      14.09438110       0.29627817      -0.23637177      -0.04005904      -4.04277233       0.30589916       1.03974458
I        3.25619546      13.82391457      26.80104311       0.42732138       0.08921762      -0.09660817       2.00944464       0.09411459       2.08125820
I        6.24686722      16.95813706      26.94772637      -0.13613897       0.25652477       0.01807365      -1.17380216       1.78857369      -1.35368126
I        6.52848297      10.62192846      14.38608557       0.02859699      -0.24560820      -0.18077439       2.00919990       0.45457811       0.03641206
I       13.70152617      14.04995976      23.89453729       0.04729985      -0.07008809      -0.01203079       0.79160338       0.31478950       0.72155008
I       -0.24685724      13.84783847      17.39411101       0.14879192      -0.18116557      -0.16162353       0.82359274       2.68775540      -0.63315865
I        5.89261476      13.57773999      16.88678718       0.05428854       0.15948336       0.17466209      -0.22924720       0.11799915       1.73681027
I        7.48280392      13.75790486      23.86252717      -0.15997882      -0.06085899      -0.20803245       0.15421894      -1.46425058      -1.76856923
N       17.28673757      16.27656048       3.46884814      -0.22520566      -0.05345836       0.76970599      -0.04001016       0.64661545       0.96567840
C       18.41983141      17.19800807       3.82553699       1.07275270      -0.45344045      -1.76410965       0.37416381       0.43334378       0.33697708
H       18.25418972      17.79770143       4.70036615      -0.50837490       0.18085038       0.71799711      -0.16408746      -0.03878100       0.14864343
H       18.64786399      17.86665061       2.96803180      -0.46014809      -0.14241248       0.21855280       0.01015186      -0.25854547       0.17165477
H       19.33682766      16.58388559       3.92541693      -0.33622218       0.06695960       0.30895329      -0.06141826       0.31655675      -0.07661123
C       15.97961019      17.01755665       3.14953331       2.11989489      -0.74450145      -0.83316568       1.01020276       0.64446367       0.11301079
H       15.69847995      17.56302349       4.04636242      -0.06381134       0.38799409      -0.14073315      -0.05215441      -0.10937688       0.27899129
H       15.21464868      16.31616643       2.81308535      -0.02367165      -0.14024620       0.16191793      -0.46109362      -0.13280056       0.04006502
H       16.38382602      17.57831226       2.28252408      -1.02652206       0.57573102       0.46616108       0.16996831       0.19656757      -0.02654956
H       17.15512275      15.65821690       4.29438116      -0.24981943      -0.13942177       0.14308975      -0.18637643       0.02791126       0.06500960
H       17.57243812      15.61213807       2.69618408      -0.19589927       0.47992692       0.03900364      -0.18175969       0.00186858      -0.01131803
N        9.03884038      23.55428078      10.51693920       1.81474009       0.22892359       2.42125868      -0.00056633       0.95241676      -0.73864631
C       10.16950917      24.49476484      10.07328072      -0.26002907      -0.85280367       0.06645623      -0.15652394      -0.63932797       0.68975991
H       11.00886495      24.25496286      10.78459607      -0.40358832       0.36481445      -0.95747197       0.07654999       0.02288433      -0.17482159
H        9.87794607      25.55605638      10.08590764      -0.20956203      -0.16185577       0.47548206       0.04759378       0.06550597       0.05655860
H       10.35692255      24.26714062       9.00113279       0.32450286      -0.21954730       0.58350054      -0.07286404       0.05003926       0.05606125
C        9.44063585      22.10758793      10.26841460       0.07830117       1.10479252      -0.04950514      -1.01433501      -0.78899244       0.07559385
H        9.35813002      21.91701549       9.21486288      -0.31903659      -0.11122113      -0.80686411       0.34574286      -0.11934148      -0.09662716
H        8.79899356      21.44903640      10.83647111      -0.08515829      -0.31013154       0.32209155       0.14345232       0.21088002       0.18400054
H       10.51258858      22.00692932      10.47909210      -0.17832823      -0.00696122       0.51742085       0.03435490      -0.00069219       0.15306564
H        8.16780583      23.81932617      10.08475079      -0.81598036       0.10799866      -0.56251433      -0.01482966       0.22956813      -0.13282023
H        8.86795864      23.70481257      11.62955057       0.07419200      -0.25578199      -2.06401125      -0.00844456       0.33853890       0.16712737
N        9.29377610      16.12457048      10.26927575       1.09208218      -0.20808101      -1.50697209       0.64468564       0.38046543       0.19808376
C        9.42649407      17.36554391       9.37336877      -2.02739089      -0.82903589       1.46645623       0.04785840       0.65679645      -0.52365711
H        8.90014483      17.15253513       8.46307353      -0.62420633      -0.13104995      -0.53583361      -0.02432523      -0.13120478       0.07284704
H       10.41748429      17.49136867       9.09175462       2.25763112       0.32422926      -0.07925535      -0.07770056       0.20155987      -0.04923789
H        8.98476915      18.22448403       9.88306306       0.14113343       0.01772313       0.10606855       0.03920730      -0.19276265      -0.18181049
C       10.17270699      16.13252036      11.46804693      -0.93886736       0.40297710      -0.14204180       0.02001655       0.12239971      -0.00411563
H       11.11990871      16.55078522      11.18594495       0.83764489      -0.08976404      -0.32956389      -0.05766518       0.22452811       0.16781669
H       10.21200448      15.10697661      11.85261115       0.15296846       0.17420244       0.27681204      -0.23713685      -0.06238706       0.06371573
H        9.72771086      16.86440336      12.13450412      -0.14005554      -0.10295919       0.60452994       0.11966405       0.00756466       0.28307062
H        9.62990863      15.33884072       9.65048606      -0.36045965       0.20937243       0.27481278      -0.04471452      -0.02206858       0.07398316
H        8.31462294      15.85633083      10.49012259      -0.19920027       0.20827375       0.00225058       0.01735933      -0.30577330      -0.15401546
N       16.25458294      23.74764230       3.21151518       0.79961497       0.74006094      -0.46452116       1.16234915       0.44504946       1.07762876
C       17.44801393      23.88694058       2.34838891       0.96381650       1.79716293       0.13853305       0.03662293       0.33937415      -0.44504208
H       17.18381191      23.55143309       1.36999080      -0.04723698      -0.25307242      -0.87868333      -0.19725516       0.04901545      -0.02532325
H       18.34048913      23.40259992       2.74070006      -0.23889500      -0.88657473       0.31051924      -0.09745891      -0.13928359       0.15011364
H       17.83199331      24.95724383       2.33007224      -0.99995029      -0.71673371      -0.08627529      -0.05485954       0.11012470      -0.00219712
C       16.59867635      24.02087380       4.59660360      -0.93758993       1.03835639       0.99324428      -0.99030931      -0.35394555      -0.09900262
H       16.83761830      25.05848470       4.73391194      -0.09751376       1.00881080      -0.31865826      -0.26042867       0.12154830       0.29171053
H       17.40971352      23.56658740       5.10906742       1.13645870      -1.47907759      -0.44753559       0.28469880      -0.17419073      -0.13083263
H       15.72967430      23.81606568       5.17606812      -0.87970149      -0.13327863       0.65780662      -0.27068496       0.07741793      -0.07261020
H       15.81258519      22.84363785       3.10994953      -0.16284257      -1.12513230       0.03859141       0.31153067      -0.07624992       0.08603015
H       15.50178798      24.40856325       2.90536926       0.24049019       0.03295663       0.13846181      -0.07093329       0.15881423      -0.14559091
Pb       6.81240973      20.04663196       7.27895455       0.14193040       0.13415477       0.07423472       0.89180883       0.27975918       1.07604991
Pb      13.62240595      20.06843097       7.18431886       0.44201190       0.16030585       0.06904130      -0.46821316      -2.21231090      -3.20100393
Pb       6.06727783      20.34018551      -0.27725646       0.04640041      -0.21138163       0.31249632      -0.14592998      -3.99357710       2.40999614
Pb      13.74957235      20.36045881       0.22133911       0.09862013      -0.17383524      -0.01733170      -0.29532245      -2.11355936      -0.21692234
I       10.81851005      20.37025695       6.42584612      -0.44685330      -0.01829259       0.00489903       1.10384956       1.35785349       1.39284344
I       17.30604352      19.92536421       7.18551770       0.19346370       0.13017030      -0.07499661      -0.56122350      -0.34964640      -0.03302546
I       13.64348686      16.99049371       7.71045239       0.04550895      -0.18660909       0.02578444      -2.35632965      -1.26490210       1.53850085
I       13.46171297      23.48328237       7.52021095       0.11609920       0.01991092       0.09204461      -0.56607244       0.97468762      -1.99841367
I       17.17942201      19.96859022       0.47949811      -0.15030872       0.04245643       0.04684295       2.35466764      -3.26144844      -2.41621960
I       10.63024628      20.09105925      13.37908132      -0.00881236      -0.19377841      -0.21623682       1.34291595      -2.04502660       3.39006082
I       13.67432706      23.65225821      13.20475935      -0.12833632      -0.04659007      -0.06050925      -1.68828987      -1.60286077      -0.17881591
I       13.15228831      17.18747541       0.93893587       0.03507313       0.07310967      -0.21621350       2.03221780       1.24247577      -2.19194976
I       19.96677183      20.98129714      10.49858913       0.04859086      -0.06541626      -0.10446154      -0.50600206      -1.30115585       1.59947379
I        6.60748889      20.38763119       3.23182970       0.02871274      -0.13701262       0.00947666      -0.21751675      -0.90007514       0.99425741
I       14.22480833      20.47827361       4.21643591       0.01396708       0.05976499      -0.17477538      -4.07606509      -0.26627568      -1.99995647
I       14.90129803      20.16526950      10.68605355      -0.07312277       0.04225115      -0.10008939       0.55519943      -1.78187502       0.02809189
Cs      17.31342424      17.06964625      17.32905849      -0.04076438      -0.02528523      -0.09174772       0.93304350       1.08092307       1.95702841
N        9.69323336      23.49967288      23.20818812      -0.72431483       2.76443205       0.64123558       1.10677262       0.30454495      -0.98772905
C       10.32117738      22.23069470      22.89943266      -0.69432865      -1.02356961      -1.77319219      -0.09079107      -0.00482854      -0.21038838
H       10.82794340      21.84277364      23.81017526      -0.34183476      -0.05170461      -0.73026977       0.10512562       0.16350077      -0.20197233
H       10.96743585      22.41221491      21.99588762       0.13896869      -0.29218102       1.01266053      -0.27987823      -0.02131253      -0.01713660
H        9.45478593      21.62272831      22.46128101       1.23538788       0.00943103       0.89114224       0.00993038      -0.19135815      -0.11250423
C       10.48826893      24.35321809      24.20078749      -0.26613437      -0.19015616      -0.75240008      -0.75833147       0.35908282      -0.25688780
H       10.86952511      23.72469657      24.97723736      -0.11053790      -0.72821805       0.78104221      -0.06006567       0.05722020       0.19862000
H        9.88457255      25.15926597      24.61770885      -0.19603567      -0.01558076      -0.11323976       0.03834527       0.12225653       0.00169831
H       11.36972901      24.73635049      23.71370553       0.30456149       0.37029658      -0.61440243       0.08884373      -0.10491370       0.15206992
H        8.73047073      23.40121751      23.58180421       0.19510978      -0.35080240       0.14366718       0.07457707      -0.27692704      -0.12063570
H        9.51255875      24.08859485      22.33833854       0.44217358      -0.41950479       0.52473464      -0.00382321      -0.14368306       0.27576968
N       10.86360725      17.19322238      24.80393466      -1.19384898       0.77810465       1.62345498      -0.70617935       0.20306721      -0.25596071
C       11.23995356      17.21631628      23.41200897      -0.37662528       2.41706941      -1.18741776      -0.41074352      -0.73525652      -0.35296039
H       10.76354659      16.42562946      22.88366047      -0.25427016      -1.05696799      -0.44419370       0.17585495      -0.03345848      -0.04842312
H       12.32005214      17.24045953      23.33074063       0.37089911      -0.22066341      -0.25019913      -0.14650725       0.12716775       0.24226517
H       10.81351235      18.17753610      22.95539698       0.62581574      -1.00162416       0.52992722       0.03962416       0.00222284      -0.11329955
C        9.38479064      17.49664456      25.02935807      -1.30027763      -0.41871957      -1.55172637      -1.67537286       0.10707054       0.87591596
H        9.10870390      17.20826150      26.06573006       0.10782196       0.33076651      -0.43578680      -0.02047898       0.21060844      -0.03066741