720
Lattice="26.21028687969213 0.040871642447686804 -0.05439576090417736 0.08039082242729607 26.53880036986874 -0.010253298161143454 -0.2200786249489795 0.09307332426835185 26.452279450848536" Properties=species:S:1:pos:R:3:forces:R:3:momenta:R:3 energy=-3006.072021484375 stress="0.0010594252962619066 -0.0004628599272109568 -0.0006703778053633869 -0.0004628599272109568 0.001233799965120852 -0.00021004809241276237 -0.0006703778053633869 -0.00021004809241276237 0.001484238659031689" pbc="T T T"
N       10.01855681      10.57381913       2.84654213      -0.81479986      -0.07241598      -0.32318539       0.17807883       0.18818338       0.25116825
C        8.81572622      10.08890012       2.09365769      -0.10402959       1.70017618       0.07201517       0.20592872       0.16350584      -0.22771559
H        8.58159369      10.67138851       1.18339150       0.53102741      -0.14012535       0.14753550      -0.14665745       0.05690267      -0.01307561
H        7.95025473      10.20552031       2.73816190      -0.18999590      -0.16699983       0.34735668       0.06446642       0.06240488      -0.10710026
H        9.06397246       9.08574169       1.90513536      -0.25649056      -1.62830265      -0.52426556      -0.07575358      -0.06643517      -0.05617890
C        9.98063383       9.94263576       4.21361672      -0.69471623      -0.20086899      -0.39347612       0.23509877       0.06568242       0.73667306
H       10.01087447       8.86205037       4.09526559      -0.29731843      -0.49503552      -0.50687804      -0.10829313      -0.06376753       0.09817953
H        8.99730301      10.15958190       4.70073825       0.94786676       0.35403975      -0.06060724       0.03182870       0.06668371      -0.25794852
H       10.90172683      10.07946133       4.74357224       0.40325045       0.95633236       0.73544075      -0.00323256      -0.00235394      -0.08290990
H       10.16140059      11.59141147       2.74701273      -0.41056396       0.47919027       0.80823685       0.19900500      -0.20083113       0.10215712
H       10.83214407      10.27991101       2.31414482       0.84839775      -0.77588143      -0.09135768      -0.04315468      -0.06602046      -0.01418940
Cs       3.73327450      16.93296692       9.39566571      -0.00501947       0.05927262       0.03367693       0.45922808      -1.46944426      -2.16583557
Cs       2.93439325       9.68837766       9.88566550       0.33318360       0.29154817      -0.16004005       3.41407503       2.10216045      -1.49923888
N        9.65786689      17.27163007       4.28901967       0.41369365      -0.14811022      -3.29153359       0.05883171       0.24000642       0.21657387
C        9.79154923      18.29566159       3.13737341       0.41685323       1.14719278       0.92388921      -0.93397690      -0.44004896       0.13588471
H       10.85011303      18.34825680       2.71092954      -1.26433924      -0.72487117       0.37699960       0.08232653       0.09885894      -0.37829568
H        9.65735580      19.31550301       3.58760470      -0.16114330      -0.66909528      -0.21783536      -0.11555195       0.08583665      -0.05356177
H        8.96793521      18.14757489       2.39269984       0.77502529      -0.26802358       0.42324250      -0.12154074      -0.15344933       0.12799568
C       10.13136127      15.93136963       3.75036147       1.06829841      -0.15366351       2.30359242      -0.76769596       0.75460858      -0.00419388
H        9.44334058      15.51026939       3.02909176      -0.27277786       0.17848200      -0.37572791       0.00764818       0.06181570      -0.35460993
H       10.23133684      15.21666660       4.64372776      -0.18813241       0.78606521      -1.10760427      -0.03020547       0.19974100       0.23818233
H       11.15356854      16.12485258       3.36023913      -0.55836672      -0.31161138      -0.15065357       0.04768883       0.00590521       0.24358308
H        8.65502763      17.21897681       4.54481638      -0.35977292      -0.07873263       0.41270697       0.08016753      -0.01876779      -0.13789224
H       10.19144853      17.52759987       5.11489432       0.43300652       0.21113916       0.49742986      -0.13423134       0.11008189       0.30362199
Pb       0.41820854      12.86182691       6.08029138      -0.21298067      -0.00890458      -0.09632850      -0.46918561       1.24139830       3.05622481
Pb       6.72610282      12.96594639       6.30564112      -0.05283455       0.03544945       0.03594155       2.40173695      -0.24038126      -3.11263915
Pb       0.13854179      13.22919922      -0.62086633       0.02085035       0.66739669       0.19262499       1.23658592       0.99508832      -0.60148567
Pb       6.52405601      13.24418303      -0.56206484       0.02113223      -0.06113333       0.09486705      -1.20858869       4.37369023      -0.67607434
I        3.34493489      13.50276074       5.95260353       0.36597781      -0.18062057       0.19014680       3.19680187      -0.12103299       0.45627093
I       10.10869771      13.05898648       6.84609447      -0.26324571      -0.10362099      -0.14258060      -0.13043699       4.38732652       0.05417318
I        6.04541693       9.92382795       6.85493134      -0.01264975      -0.01221092      -0.05516328      -0.76167854      -1.07441975       1.18379425
I        7.13109418      16.84393048       6.34534035      -0.21326073       0.05613734       0.41213501      -1.72215248       3.22273713      -2.21751434
I        9.71979484      12.75680003      -0.63431850      -0.00068426      -0.05699164       0.10881784       1.05395292      -1.26089135      -1.38950405
I        3.27411907      13.51650732      12.53813698       0.15718332       0.06471440      -0.15614860       2.01903889       1.79902976       0.08093447
I        5.65814276      16.43930954      13.30272537       0.19087955       0.17044908      -0.23464165       3.76141541       1.38545062      -1.83622450
I        5.84884713       9.79251697       0.02189124       0.03904647       0.17446081      -0.15018929       0.74814673       0.33292639      -1.70799127
I       13.51985785      13.27108115       9.59885425      -0.08342823      -0.08737498       0.24805054      -1.35751443       5.13337399       1.46631394
I        0.91703219      12.70878930       2.52367422      -0.13279763      -0.00688261       0.30631768       3.22477573       1.85433785       0.08281074
I        6.41182196      13.24362400       3.10338268       0.04394680      -0.06182322      -0.10874651       2.55965956       0.04687797       3.39379254
I        6.25150631      13.95783273       9.24306821      -0.21479634      -0.07957011       0.09779064       0.71840076      -1.72765469      -1.86709725
N       10.29524703      10.43591014      15.30659308       0.04954593       0.86392615      -0.50815571      -0.45217215      -0.71268165      -0.29951843
C        8.90961767      10.84593451      15.40224208      -1.43706399       0.73761426       1.69556930      -0.79648161       0.24241042      -0.88475553
H        8.30381510       9.99662621      15.75657515       0.15477034       0.11802937       0.19138775      -0.05105072      -0.06365848      -0.01994620
H        8.55315213      11.10154519      14.41923144      -0.27424472       0.27786434      -0.53099015      -0.32850533       0.40055705       0.05960559
H        8.76262813      11.74670890      16.11805629       0.39404527      -1.31695915      -0.98829297       0.01504503       0.02329525      -0.08886235
C       11.00419714      10.29255913      16.54040236       0.07243693      -0.73331642       1.93675864       0.15506479      -0.13212883       0.93078591
H       10.53209987       9.42871419      16.99365669       0.05730046      -0.33171489       0.66169537      -0.00201712      -0.39439886      -0.29453363
H       10.81458121      11.16763521      17.17588782       0.10422899       0.01406377      -0.06344697       0.05200126       0.02723676       0.09600735
H       12.07868491      10.08886018      16.45754911      -0.09717838       0.16060317      -0.37541986       0.26131354      -0.08135042       0.02853112
H       10.77666981      11.13092118      14.78068100       0.71117304       1.28138760      -1.06162917       0.24890183      -0.14038562       0.17271198
H       10.35122745       9.62278009      14.72437037       0.13755049      -1.35985910      -0.65542559      -0.30821325      -0.09560543      -0.02047666
N        3.39871142      17.68432925      22.47305362      -0.38952898       0.33689197      -0.56424759       0.30061443       0.36506574       0.26135119
C        2.12013730      16.90715310      22.43399154      -0.06035816      -2.38584057       0.71952510      -0.17289147      -0.00638590      -0.15856506
H        1.76361621      16.71094864      23.49207861       0.38815412       0.39534658      -0.97362056      -0.01837935       0.03271095      -0.02103245
H        2.27829466      15.86450077      21.97964254       0.04862243       1.37472365       0.43086811       0.01547769       0.07974800       0.03225949
H        1.32568616      17.41078060      21.89865726      -0.10442921       0.33014925      -0.35403561      -0.04649166      -0.17020202      -0.13378845
C        4.11481190      17.50660596      23.76774952      -0.04457390      -1.68151286      -0.56613404       0.07467744      -0.54775976      -0.24054630
H        4.59772669      16.49112052      23.78761177      -0.34429405       0.96864674       0.05369320      -0.44054674      -0.00715776      -0.02613866
H        3.33014268      17.60035962      24.51064838      -0.03764958      -0.23048305       0.46667657      -0.31946655      -0.08157901      -0.11457823
H        4.78122034      18.33702426      23.87148266       0.82058877       0.27196075       0.21816504       0.11580053       0.23601187      -0.01608114
H        3.11160835      18.68008342      22.53545108      -0.02664085       0.03695726      -0.66093487      -0.06121179      -0.12968653       0.02146805
H        3.96312374      17.55107628      21.56942212      -0.39340572       0.17066223       1.15667970       0.02120917      -0.07614995      -0.23837888
N        2.08727849      10.17712779      22.93091066       0.91296500      -0.95415526      -2.29384651      -1.23700811       0.62417131      -0.14329552
C        2.58756542       8.75209556      22.90529590      -0.99307053      -0.72547761       1.07855723      -1.07086007       0.31272984      -0.03783282
H        2.97610036       8.51820893      23.91735627       0.54573416       0.29937750      -0.49165311      -0.17876570       0.11470222       0.06410924
H        3.27710539       8.53911860      22.07403569      -0.07973718       0.30908120       0.26591534      -0.08512244       0.14325540       0.15997797
H        1.70584590       8.07767770      22.87669415       0.22094597       0.31983026      -0.48390040      -0.10814361      -0.02813380      -0.09694430
C        3.24109902      11.12557847      22.85343445      -0.58596632       0.84675625       0.51037793       0.58025760       0.16397985      -0.69169815
H        3.62838792      11.09972499      21.84086701       0.18665832      -0.01879923      -0.32137504       0.14187222       0.26871945      -0.02478420
H        4.02438856      10.86797361      23.55906189       0.10303812      -0.33631204       0.28680691      -0.05736099      -0.04419312      -0.03087950
H        2.86723538      12.13936533      23.09571706       0.13440166      -0.25823437      -0.20572229      -0.12429527       0.17579211      -0.03341210
H        1.49184127      10.26749575      23.76304212      -0.37802295       0.50531259       0.27125386       0.02871346      -0.12586321      -0.12508043
H        1.56473378      10.31093425      22.00242506      -0.06094885      -0.06069503       1.33269961       0.00455322       0.04698989      -0.05068222
N        9.23835074      16.64510452      17.03890497      -0.99374291      -1.62672437      -0.49257936       0.80363625      -0.76418304      -0.93292973
C       10.24659967      17.58758975      16.69252645       2.03151982       1.83805435       0.97813338       0.02356914       0.63927106      -0.17227164
H       11.29478432      17.27765633      16.97800765      -0.95785183      -0.17252612      -0.43437441      -0.17156244       0.10151917       0.08397499
H       10.03229987      18.45259702      17.32704549       0.21509010       0.32209612      -0.08818237       0.02580542       0.12847679       0.09550085
H       10.16737342      17.92162984      15.66814623       0.02745116      -0.20502598      -0.58133517      -0.12989790      -0.09413035      -0.08541885
C        9.40219419      15.30460634      16.30270550       2.88106483       1.07950651       1.31400124       0.16361852      -0.32946350      -0.24292190
H        9.54200687      15.47887761      15.22746458      -0.75102141       0.06969377       0.07289294       0.30949861      -0.05692025      -0.18698158
H        8.57645426      14.74694089      16.68789217      -0.43851191      -0.97466716      -0.32919178      -0.28542453      -0.02583043       0.21823669
H       10.46578841      14.93275774      16.64211413      -1.98885473       0.22112726      -0.31117859      -0.09219151      -0.10467110       0.05561837
H        8.32389950      17.08294615      16.84683251      -0.30172984      -0.07995571      -0.34912879      -0.30553126       0.06104487       0.16742027
H        9.18900905      16.51615829      18.05969358       0.29193876      -0.33819180       0.12893427      -0.05239072      -0.00368943      -0.03211221
Pb       0.17884320      13.17361268      19.31990278      -0.01032720       0.02136997      -0.04251879       1.04144629      -1.72694661      -4.15477087
Pb       6.59758241      13.49888814      19.50348616      -0.19634327      -0.00296784      -0.02279249       2.02419605       0.10490961      -2.51287048
Pb       0.36184895      13.09008523      12.70768724      -0.39843128      -0.11530997       0.13047098      -1.74173060      -7.44027260       2.07215655
Pb       6.46790045      13.22866199      13.02415968      -0.10235839       0.19673071       0.07215225      -3.08919428       2.84038772      -1.52939528
I        3.36196178      13.78331440      19.41055739      -0.17539154      -0.11688792      -0.02036658       0.00214642      -1.15628681       0.54926285
I        9.71675123      13.29538524      19.42366595       0.13338117      -0.02348358       0.08929589      -2.27825541      -0.81718696      -1.42723176
I        5.97265012      10.05409864      19.16968165       0.01163105      -0.02274609       0.12297740      -1.54724423       1.40137131      -1.90320924
I        6.11037655      16.84601258      19.54804069       0.03219162      -0.16826112      -0.04900964       0.66608503      -0.36333071      -2.68303307
I        9.69151325      13.19666181      13.06155738       0.31317275       0.23826438      -0.12381138       2.69850896       1.03459236       2.56025988
I        3.18033753      13.74830872      26.01769825       0.09122516      -0.04212267      -0.07214194       0.66122548       1.15446035       1.34727656
I        6.94132864      16.97929138      26.30487765       0.02462815      -0.28877821       0.18611207      -0.62236067      -1.73226410      -2.51408788
I        6.07003825      10.28375029      12.35918324      -0.09714704      -0.33146416      -0.04878677      -0.12329419       0.04953522       1.37426875
I       12.47805672      13.00095573      23.32329321       0.08491914      -0.14844336      -0.16812295      -1.61253132       1.84760217       3.04893570
I        0.53229425      12.99481384      15.89235879       0.04367446       0.00800247       0.21538918      -2.86837405      -0.22509400       3.72923890
I        5.84827250      13.11817307      16.15164377      -0.01974154       0.00767326      -0.01509683      -0.00376007      -0.76426513      -0.85692536
I        6.59693533      13.55264752      22.71016257      -0.11632500      -0.12569341       0.14106812       0.29065217       1.29792426       2.12806406
N       16.35444670      15.03288568       3.44067733       1.08172030       0.67631659      -1.79408893      -0.93031557      -0.41862301      -0.14618346
C       15.13976374      15.66836605       3.93385964      -0.53055784       1.00114583       0.08408182       0.25910569       0.81721716      -0.47690837
H       14.61519336      16.19129215       3.10649151       0.25486046      -0.17483519       0.31124808       0.06786898      -0.02078800       0.03804031
H       15.33543287      16.37491150       4.74903170       0.43609047       0.04422705      -0.13726948       0.06500787       0.11696098       0.16725107
H       14.53050877      14.90341762       4.35870551      -0.83716177      -0.69904783       0.21335335       0.06042494      -0.18039146       0.04316138
C       17.59134030      15.92315897       3.46591280      -1.60320169       0.04371464      -0.01743063      -0.25593283       0.78154299       0.28696455
H       17.49078364      16.84472316       2.89658835      -0.34155567      -0.12317875      -0.55559516      -0.20678827      -0.16468413      -0.12809498
H       18.39737738      15.30427658       3.18321729       1.17367327      -0.58150168      -0.61952422       0.04204252       0.11969662      -0.09890595
H       17.71732430      16.21713121       4.47863616       0.19006659       0.24419964       1.23901463      -0.00309007       0.20952875       0.22181401
H       16.18129210      14.66421989       2.43502001       0.31941109       0.33511413       0.88982937      -0.23021192      -0.07555193       0.18117357
H       16.60819278      14.18649389       3.98326579      -0.15649625      -0.34809208       0.42933705       0.06292842       0.19567440       0.03696116
Cs       9.85767151      23.96505767       9.56310138       0.03245659      -0.17473462       0.11998015       1.92087826       0.12912052      -0.70888566
N        9.57750843      16.95888454       9.51376240       1.03822612       1.21612669       0.48641231      -0.86457639       0.33597156       0.98322663
C        9.64473201      15.55994055       9.82022014       0.41115244      -1.64849655       0.26013364      -1.02644304       0.52543965      -0.22029484
H       10.23023251      15.49480347      10.74136992       0.21658671      -0.28576132       0.08411860       0.13858678      -0.16486458      -0.27084164
H       10.21629223      15.05028060       8.98924573      -0.92728954       0.05745524       0.79966272       0.07823066      -0.24520345      -0.26543630
H        8.62138325      15.18324881      10.06636601       0.60718709      -0.03703302      -0.52569346      -0.23561294      -0.16195636       0.05759715
C        9.25926527      17.77173175      10.70874892      -0.43207581       1.05308062      -1.57940527      -0.59742910      -0.52039911       0.14521556
H        8.40878363      17.34235057      11.15943431      -1.34498842      -0.46443463       0.52959572       0.19400827      -0.15397962       0.00746200
H        9.11979650      18.83582842      10.45971146      -0.20938388      -0.25834536      -0.25190212      -0.11736738      -0.17257002      -0.02068264
H       10.03518966      17.74360204      11.39031465       2.00455535      -0.37726901       1.43870922      -0.22312566       0.11895280      -0.06305348
H        8.85905949      17.13101628       8.84559158      -0.84582698       0.23215728      -1.30335086       0.15396089      -0.07487595       0.04517967
H       10.50076621      17.20880989       9.08022815      -0.31507485       0.38415154      -0.05851616      -0.23813070       0.15245684      -0.12600368
Cs      15.96772523      24.11724666       4.05122592       0.18072151      -0.13949758       0.08795458      -0.25379981      -0.01344776      -2.70442852
Pb       6.87976178      20.21541060       6.62843709      -0.05098818      -0.09442109      -0.01083462       0.96402344      -0.63089115      -4.35968423
Pb      13.28041682      20.09693230       6.50919450      -0.04951797       0.01851012       0.35185609      -2.26413609      -4.20378201       0.84702735
Pb       6.94772916      19.93513413      -0.11040595      -0.02275573       0.23464986       0.03658849      -0.23074115      -0.69636562      -2.42768434
Pb      13.60593031      20.21338179       0.46110298       0.03478784      -0.21484414      -0.27236763      -0.83039563       0.88758421      -5.30949813
I        9.82758460      20.45173991       7.68418194       0.00588825       0.06645855      -0.15480848      -1.36484853       1.75251254       0.91398288
I       16.38822292      20.22271249       6.02335690      -0.02634260       0.04547443      -0.02100766       2.31005209      -1.76625874      -2.68745012
I       12.33027408      17.18675775       7.12000099       0.02852291      -0.04199015      -0.04631143       0.71783778       2.38073272      -0.57507039
I       12.92324029      23.37347499       6.82751842       0.08979703      -0.01435608      -0.09793633      -1.91453251       1.54889301      -1.26639189
I       16.88696888      19.26407093       0.39683521      -0.15370239       0.17508275       0.07130408       1.88937407       1.73209182      -0.02157422
I        9.97557579      20.80306494      12.64887649       0.06240730       0.10504245       0.17252245      -0.42929731       1.69770358      -2.80845545
I       14.44281503      23.40746129      13.45632371      -0.28689273       0.12788119      -0.07169805       2.45200073      -0.27616557       2.50515047
I       13.68351348      17.02614239       0.53730889      -0.06355380      -0.04177444      -0.08987418      -0.62634054       1.26661137      -0.78282118
I       19.07061120      20.06739213       9.75551532       0.22023723       0.04108043       0.11615399      -2.59759083       0.31094220      -2.59518029
I        6.70067321      20.70953151       3.46252470      -0.10389080       0.05982660       0.04615364       1.65464124      -0.37922917      -2.07624815
I       13.23936923      20.00015844       3.43488135      -0.05687404       0.02737567      -0.00834466       0.69182273      -2.79885579       1.64946371
I       13.42143092      20.50660567       9.90609661       0.10390716      -0.02163200       0.04290769      -0.14604188      -2.45125104       1.62937847
N       17.61477986      16.82841023      15.70467817       1.22031434       1.03600305      -0.08864458       1.06100700      -0.16276123      -0.29323751
C       17.10854537      18.26577150      15.80056117      -0.81511134      -1.57701065       0.12904689       0.97028281       0.11744891      -0.77676044
H       16.22586593      18.30285710      15.15041079       0.05122775       0.16223522       0.06565636      -0.14751472       0.00834316       0.05401761
H       17.86137530      18.94190209      15.47209199       0.75611524       0.62127002      -0.23933265       0.01031718      -0.00411130       0.38887162
H       16.82286412      18.44887375      16.85115311       0.05996653       0.00195321      -0.28302066      -0.19897110      -0.01968024      -0.03299443
C       16.50504286      15.85803410      15.55423626       0.84224650      -0.38065760      -1.20853538      -0.59165207      -0.20362432       0.74148739
H       16.91780991      14.85265339      15.76084547      -0.31916779       0.24397449      -0.13197257       0.17632266       0.07096542       0.06890836
H       16.16531501      15.96138031      14.48614090      -0.05850821      -0.28427791       0.87300419      -0.30793372       0.26023937       0.15221989
H       15.73659466      16.13027670      16.25471680      -0.58301085       0.07272096       0.37717023      -0.02182764      -0.17452307      -0.12385836
H       18.16660602      16.65236095      16.57195305      -0.13539416      -0.24362819       0.09362853       0.19752110      -0.16209760       0.04123012
H       18.34180898      16.72177812      14.92581066      -0.96270487       0.06247311       0.46003124       0.00891628       0.22545373      -0.31129075
N       10.05977536      23.69539541      24.07057196      -0.94093920       0.52391284      -0.65297949       0.31563105       0.90937840       0.68975461
C        8.95110597      24.58334275      23.57145389       0.28318236       1.31312532      -1.01510477      -0.39681256      -1.34978154       0.04699259
H        8.62395775      25.41459485      24.25693466       0.71441499      -0.77060342      -0.11621980       0.13731990       0.15079280      -0.08833787
H        8.03219283      24.02784549      23.32604753       0.35369700      -0.31288359      -0.00464351       0.30118007      -0.01797231      -0.11212496
H        9.37078372      25.05738526      22.63402079      -0.56318111      -0.36525205       0.72105477      -0.10653892       0.33765747      -0.22646668
C       10.36340018      22.52965770      23.13174985      -1.70903076      -0.35833326       1.69695928       1.10959005       0.62192974       0.45593003
H        9.37097170      22.16527914      22.76177263       0.66218812       0.29923498       0.00721313      -0.12842426      -0.06529220       0.03693571
H       10.66645378      21.80895243      23.91825479       0.67982649      -0.40063309      -1.10702910      -0.14063689      -0.14120421      -0.06594601
H       11.01969693      22.80472138      22.31964109       0.42849226       0.07102506      -0.05545759      -0.05592405      -0.10094906       0.10764737
H        9.77716128      23.28590124      24.97501428      -0.01098320      -0.18351047       0.32168005       0.11935048       0.01543879       0.11989798
H       10.91608434      24.24871080      24.21636745       0.23022550       0.20468747      -0.00429395      -0.45157811      -0.06442359       0.15057471
N        9.51341850      16.95241302      23.91501502       1.51143070      -0.51926928      -0.57493929       0.64600927       1.65740477       1.06301487
C        9.17488795      16.39174206      22.54530359      -3.52691362       1.35946870       1.21598235      -0.58437548      -0.13662268       0.72770626
H        9.94055930      16.65669763      21.83424794       0.44162930      -0.22862126      -0.23104225      -0.25807439       0.21540609      -0.03543149
H        8.19874633      16.96055874      22.30609197       1.32029204      -0.81611733      -0.18623251       0.20345959       0.02042506       0.10934543
H        8.84734658      15.34848416      22.69063448       0.70860850      -0.00431161      -0.36075211       0.15677429      -0.03336432      -0.06739466
C       10.95678423      16.51961441      24.17387669      -1.04072515       0.44413412       1.48496649       0.95911399      -0.09358455      -0.37540131
H       11.39443119      17.21859594      24.91046724      -0.11121785      -0.37290134      -0.08493996      -0.08518308      -0.06329666       0.14074392
H       11.47428333      16.61603271      23.24431679       0.47102259      -0.10991257      -0.70328916      -0.22917620      -0.01505837      -0.03591044
H       10.92887727      15.46332414      24.56351585       0.12837324       0.87698638      -0.43510029      -0.10824439       0.31723716       0.06946428
H        8.92336144      16.60429505      24.69816347      -0.38206826      -0.30145998      -0.15699958       0.23057026       0.17218164      -0.02780150
H        9.31608850      17.97280120      23.93259221       0.50928530      -0.13099182      -0.11369921      -0.25471739      -0.00155667      -0.37665161
Cs      16.72474519      23.10511233      16.65034164      -0.07809635       0.04330369       0.02874777       4.26043695      -1.43044453      -0.34934030
Pb       6.35841743      20.10401127      19.85338247       0.20453865      -0.13462833       0.00182353       1.88991193       1.37020601       1.84535265
Pb      13.26610598      20.04396362      19.65390370      -0.14689912      -0.02987963       0.24734188       2.21934365      -1.76140094       0.57017929
Pb       6.95917908      19.89488714      13.33016383      -0.05010083       0.11991424      -0.27307112       0.07055382      -1.67305584      -0.88906375
Pb      13.15498654      20.53262662      13.27881418       0.13414058      -0.07336017      -0.18177471      -0.45390390       1.22908831       2.59989899
I        9.58483164      19.93194144      19.91635893       0.01692126      -0.09289651       0.09777869       3.07786617       0.78700051      -0.43320412
I       16.27756206      20.11319104      19.50038638       0.24355995      -0.03010880       0.03986661      -0.91639303       0.76043841       0.65340281
I       12.86755947      16.73345969      19.72156655       0.06587268      -0.02941574       0.06011564       1.22848307      -0.47193409      -1.59850484
I       13.49856349      23.34456817      19.92942501      -0.04775010       0.07584951      -0.05045781      -3.95475269       0.41906901      -2.54187840
I       16.31881558      20.47660272      12.71063988       0.22531957      -0.24158152       0.02819490      -2.29149848      -0.20224026      -1.75258009
I        9.86538081      21.03257591      26.54255185       0.12932138      -0.06338493       0.06122541      -0.26010197       0.52773057       1.67993834
I       13.55689510      23.40048624      27.71666980      -0.12979527       0.17282312      -0.16977616      -0.45882450      -1.52630680       0.98708654
I       13.28473929      16.57285711      13.44516453      -0.10100742       0.04661386      -0.11204944      -0.70465352       4.32606421       0.09014823
I       19.05848041      20.32803142      23.22295670       0.00801816      -0.08514052      -0.17741902       0.84244343       1.86247488       2.50233854
I        6.62858823      19.62145220      16.42187983       0.06500302       0.04531381       0.17348805       1.62826515      -4.51069761       1.37005387
I       13.79497709      20.23559332      16.30052482      -0.22586815       0.07154339       0.16207932      -3.14687064      -1.54298272       2.88722278