800
Lattice="26.702857211159717 0.1911828513949347 -0.027800223294404656 0.19231141469340376 26.612020569733268 -0.2055477701029417 -0.028950424529961983 -0.21352464521612352 26.310302573829944" Properties=species:S:1:pos:R:3:forces:R:3:momenta:R:3 energy=-3429.057373046875 stress="0.001290501793846488 0.0007268865592777728 -0.0007801000610925257 0.0007268865592777728 0.00039131968514993787 -0.00011939276009798049 -0.0007801000610925257 -0.00011939276009798049 0.00032388931140303606" pbc="T T T"
N        9.97734478       9.61552960       4.04217120       0.45070355      -0.76891839      -1.67163783       1.12764427       0.10619531       0.37139896
C       10.11744966       8.50243539       3.05945245      -0.39785468      -0.30439375      -1.50949583       0.44732587      -0.53114485      -0.79494999
H       11.15595333       8.41760329       2.67623637      -0.29435501       0.68166529       0.01179571       0.04779471       0.07706405       0.17823416
H        9.39960670       8.55083876       2.18301960       0.60109470       0.35847595       0.97932930       0.25193797       0.00542235      -0.03690358
H       10.00572156       7.55084842       3.52076666      -0.58913318      -0.89126006       0.83730161      -0.28531369      -0.08697458       0.11001184
C       10.21968437      10.87872032       3.23306321      -1.63483128       0.35103807       1.59872038      -0.03488240      -0.13547320       0.22401969
H       11.02974014      10.70083938       2.54693553       0.63455663       0.00847370      -0.06973756       0.10224084      -0.04519362       0.02641099
H       10.39253543      11.68281131       3.99585937       0.00542560      -0.34882941      -0.88675902      -0.07040900       0.13738656      -0.19855234
H        9.28250772      11.05810253       2.63457193       0.70756004      -0.00145854       0.53380770       0.08199177       0.06627489      -0.00214227
H       10.74045936       9.39026152       4.70061523       0.20713118       0.68220732       0.61990888       0.18315025      -0.01376464      -0.05021438
H        9.05964084       9.59088015       4.56676986       0.23979925       0.22674479      -0.35182154      -0.07301679      -0.26036042       0.10475431
N        2.84450081      17.33536566       8.58086993      -0.09010763      -0.73901559      -1.83488036      -0.76732447       0.10014431       0.49046201
C        3.98853058      16.42673890       8.73868073      -0.56831340      -0.72113638       0.80287909       0.58697784      -0.60124645       0.47729669
H        4.76949450      16.96069854       9.26224567       0.35587935       0.08823074       0.31260918      -0.09375876       0.01247410      -0.01045937
H        4.38144515      16.01468633       7.82898899       0.06072219      -0.01663557      -0.83253640       0.03241507       0.07851834      -0.00679581
H        3.57507970      15.58411822       9.31476841       0.55162508      -0.01864483       0.23929862      -0.18029151      -0.02014217       0.02417255
C        2.58779946      17.99935523       9.85070247       0.15251362       2.18213726       1.25594547      -0.01327087       0.88177198      -0.27910266
H        1.53362633      18.35186570      10.04218223       0.66362177      -0.49953034      -0.56502791       0.03597932      -0.00168435       0.07883543
H        3.25348721      18.90264708       9.94830581      -0.53288547      -0.42304371      -0.52429146       0.02984713       0.24417810      -0.30892129
H        2.92620004      17.44212841      10.73274165      -0.18233215      -0.83185358      -0.31335007      -0.15513890      -0.53709858       0.03055693
H        2.00497437      16.73453868       8.24903624       0.41327864       0.72154603       0.28696663       0.07582170      -0.11487505       0.20027220
H        3.10272999      17.99758220       7.70480549      -0.62666460      -0.13927666       1.38242435      -0.07080544      -0.22275925       0.07356895
N        2.60698668       9.88159297       9.14963472      -2.13130338       0.43338150       0.19141736       0.34596147       0.84832841       0.32328954
C        2.50254740       8.77812749      10.16893110       2.50862576      -0.08075595       0.02161276       0.68745225      -0.31511758      -1.01678727
H        2.79233252       9.21368223      11.18412952      -0.62097119      -0.57625819      -1.02311781      -0.12421721       0.23832457      -0.30066898
H        3.28324810       8.02474916       9.88981264      -0.51732904       0.36004788       0.21945600       0.13118054       0.12048148      -0.04849645
H        1.53721385       8.33189500      10.09177369      -0.89488834      -0.35197637       0.31988533      -0.05704492       0.21126854      -0.20679588
C        3.96234635      10.30181376       8.78491280       0.90290234       0.31401625       0.13440344       0.72952269      -0.90324010       0.13284195
H        4.39810758      10.67005593       9.72861331       0.16841721       0.33276786      -0.34487985       0.15868413      -0.06471586       0.14363721
H        3.91096485      11.07703162       7.96673243       0.14629080      -0.54759193       0.79716183      -0.12911327      -0.34132830       0.05467955
H        4.61085665       9.44853389       8.47141133      -0.70451770       0.19316074       0.00017492       0.24001434      -0.25538914       0.11084563
H        2.06265246      10.63085343       9.69615931       0.65826162       0.04224443      -1.21736093       0.00916213      -0.15373242      -0.06379767
H        2.03052207       9.73690942       8.25079450       0.32118142      -0.19917655       0.96891158      -0.14537520       0.27994542       0.05348337
N       11.13422222      16.94646536       2.60056590       0.08075410      -0.62346374       0.25683484      -0.59709040      -0.76690591      -0.04694072
C       10.88931760      18.36033491       2.95645206      -2.24719845      -0.14024531      -0.46723110       0.46935875       0.80453233      -0.30231283
H        9.97469899      18.71872498       2.38128906       0.84751081      -0.45710407       0.49894698       0.17200597       0.03466924      -0.18711581
H       11.69010577      19.02735149       2.70302080       0.79398692       0.20663733      -0.00588086      -0.04492753      -0.04765247       0.32981527
H       10.59348182      18.33359293       4.01805203       0.40103741       0.45338331      -0.13378446       0.00902456      -0.22684169       0.03497734
C        9.96718832      16.09064407       3.10482429       0.99278472      -0.22867689      -0.16669279       0.55306351       0.82046405       0.64910412
H       10.28327943      15.05622719       3.34171216       0.31732374       0.51721018       0.41214066      -0.21119996       0.12083546       0.01950406
H        9.24316530      15.88308814       2.31378098      -0.23606896       0.78374233      -0.20486909      -0.16219324       0.09038591       0.04336040
H        9.58205750      16.66915201       3.95199528      -0.26990752      -0.59559735      -0.11994541       0.19038323       0.17072083      -0.06885376
H       12.06032636      16.65754779       3.00386474      -0.70272477      -0.19655150       0.15206152      -0.21854445       0.02711595       0.19876690
H       11.31092598      16.80136396       1.56367024      -0.34564430       0.18921893       0.03241682       0.17149507      -0.11499911       0.01740532
Pb       0.22762002      13.02484583       6.74667354       0.10419983      -0.07729461      -0.09862411      -3.08963788       2.99737101      -1.44380281
Pb       6.99702231      13.14835001       6.43019849      -0.05474658       0.33785991       0.29055487       2.68303400      -0.93336554      -0.52202853
Pb       0.19316304      13.54142104       0.14158438      -0.11704025      -0.21181025       0.18323681       0.27148841      -3.56075606       2.27407719
Pb       6.47242960      13.47377119       0.14135025       0.06576563      -0.16156742       0.02049630      -0.23919059       0.32086531       1.18566318
I        3.53009357      13.06507928       6.16987094      -0.30809143       0.09502528      -0.00104290       0.38546775       3.11113750      -0.20268197
I       10.18458700      13.12163401       7.18211585       0.04056859      -0.10904061      -0.18622361       1.07881140      -0.41260906       1.14839429
I        6.72488493      10.29163340       5.54804579       0.03064132      -0.66320350       0.20195201       0.84570259      -1.22567321      -2.86010122
I        7.60972980      16.44445791       6.53010839      -0.05549374       0.22869372       0.12480589      -2.58767679      -1.87550852       0.17105245
I       10.18710929      13.36073970       0.79445162      -0.43089560      -0.05438178      -0.48234659       3.92687267      -1.18473920       0.25155611
I        3.61159414      13.16477044      12.86411349       0.06151040       0.01164390       0.06046831      -1.67873896       0.00194617       4.23014882
I        7.10887470      16.96579839      12.72672056       0.06295386       0.05645760       0.07205721       0.94588084       0.62646506       3.31852491
I        6.54999399       9.85842437       0.15070005      -0.05527195      -0.08037516       0.08791149      -1.63918149      -1.80902602      -0.67601489
I       13.20481597      12.88882137       9.61737130       0.05455611       0.03682106       0.10237109       1.38543722      -1.91310422       0.42158107
I       -0.61237968      13.60158645       3.23213593       0.26360730       0.08997796       0.15213543       3.65186890       0.59761620      -1.70350641
I        6.71090858      13.00042901       3.33430140       0.07042348       0.15329113      -0.46756557      -0.02215271       2.20800282       0.44166740
I        7.02335739      12.55747285       9.85004850       0.02172536       0.03168799      -0.02787427      -2.38052618       0.80675322      -1.21442662
N       10.28460675       9.94555331      15.36717306       0.17827200       0.16536020       0.27147043       0.04952575       0.26620658      -0.99366219
C        8.94584562       9.84530234      15.99141639       0.43507108      -0.48097391       1.84709283       0.46837559       0.28352945      -0.63990117
H        8.83237463       8.91867203      16.57068586       0.59278804      -0.26772857      -0.05516221      -0.33860259       0.01708545      -0.03222629
H        8.25198456       9.70531652      15.19411568      -0.95107197       0.67604864      -0.57642246      -0.01221305       0.06039869      -0.05974054
H        8.80992355      10.60758703      16.78095362      -0.15384976       0.33198439      -0.87105408      -0.07534228      -0.02346201       0.12077603
C       11.46416394      10.24149629      16.22289256       0.78539790      -0.57430292      -0.43084459      -0.98706569      -0.27795914       0.12384500
H       12.33826605      10.23317365      15.54945269      -0.17893707       0.04533421       0.10006904       0.09383428       0.09702090       0.13941255
H       11.61360935       9.41855445      16.91453495      -0.20244468      -0.08064410       0.45652862       0.15549409      -0.29080117      -0.30231151
H       11.43339740      11.22918429      16.67592785      -0.44259798       0.13074808       0.26771456      -0.02486798       0.05520504       0.08064271
H       10.27273589      10.73981745      14.68511869      -0.23501987      -0.44226328      -0.54149231      -0.03297015      -0.12495024       0.00267900
H       10.42206866       9.01331525      14.89727374       0.13710791       0.54093706      -0.39820696      -0.01559968       0.41996886      -0.00645623
N        3.49638835      15.36674809      22.47066828      -0.80580966       1.31580671       0.13127314      -0.12486177      -0.58797536      -0.29932639
C        2.45265970      16.48423010      22.43484246       0.53794922       0.06273412       1.16992958      -0.58154075      -0.33873008      -0.17991335
H        3.01043986      17.38236690      22.73499468      -0.35912827       0.08206580      -0.26582325       0.11287691      -0.24818544      -0.03103384
H        1.59124276      16.31817713      23.12798120       0.74955198      -0.19261786      -0.09763295      -0.16044543       0.18077136       0.13877176
H        2.03395653      16.52295484      21.46633944      -0.31344216       0.33287528      -1.37699299      -0.08673944      -0.10700951      -0.05936284
C        4.04398785      15.35064201      23.86777538      -1.14057738      -0.57846451      -0.42953991       0.03499752       0.10295888      -0.20169906
H        4.88939797      16.00185823      23.87959380       0.73420259       0.73169921       0.10079438      -0.07736724      -0.25161538       0.14637809
H        4.38279929      14.32974532      24.09106972      -0.26234733       0.12645221       0.31015393       0.10550625      -0.04434575      -0.18985942
H        3.22683160      15.79457703      24.48022897       0.73191845      -0.70220075       0.22462609      -0.00552607       0.13883256       0.05774085
H        4.27102964      15.64670355      21.79838851      -0.84538524      -0.93139874       0.27985031      -0.25828475      -0.12514670      -0.17597238
H        2.92020369      14.52310941      22.23358347       0.93813818      -0.12911117      -0.15853726       0.14992779      -0.29905338       0.03385544
N        4.12835467       9.44714557      22.86065070       0.02519238       1.13411187       1.02767546       0.79675762       0.33985219       0.24963998
C        3.66924536       8.01635488      23.01390224       1.26288528       1.10551806       0.52717663      -0.09444709       0.56731968      -0.45870608
H        4.42502402       7.36984006      22.62494600       0.53742118      -0.46826367      -0.76016625      -0.09040400      -0.01526620       0.05257551
H        2.74657927       7.96162915      22.50552457      -1.30490750      -0.42099169      -0.45672765       0.02008920      -0.02485170      -0.09425192
H        3.63835819       7.77485432      24.07120873      -0.46368485       0.14523473       0.38149249       0.12834274      -0.05054092      -0.22142170
C        3.24389947      10.44761188      23.61000914      -1.20390111      -0.84633596      -1.63534371       1.01947940       0.15503998       0.14063184
H        3.50389377      11.40516443      23.15117783      -0.35463264       0.22052094       0.21125086      -0.37365189      -0.12268878      -0.38703030
H        3.41541717      10.45054987      24.65617544       0.44988625      -0.17310838       1.17226098      -0.10502537      -0.05433976       0.06095856
H        2.17123733      10.11923346      23.42521816       1.06694569       0.62022328       0.06490685       0.17153892       0.09060534      -0.17544129
H        4.07547651       9.84047893      21.89495388       0.45026339      -0.81647411       0.04935270      -0.05045247       0.19487966      -0.28398509
H        5.08646567       9.62681954      23.25798123      -0.44336380      -0.50373584      -0.61510910      -0.04868492       0.21922453      -0.05645653
N       10.75415239      16.20969775      16.87895159       1.22273588       0.69677207       0.07270733       1.50313940       0.38554543      -0.53220673
C       10.29760318      15.02721734      16.09933413       1.49839366       0.27196205      -0.13939443      -0.27830136      -0.53267170       0.24367314
H        9.47008963      14.70994858      16.64825242      -1.54624319      -1.22071451       0.64879893      -0.17029850       0.02432865       0.07098997
H       11.09551746      14.28267748      15.93644339      -0.11486028       0.10067476       0.52547431       0.05317988       0.30689158      -0.11367190
H       10.02319385      15.34235170      15.11342992      -0.49402096       0.51842147      -0.73244123      -0.21958478      -0.12088295      -0.03469837
C        9.59817374      17.15728572      17.15636580      -0.18559867      -0.55809346       0.88837245       0.25121350      -0.26033302      -0.26108501
H        8.99502346      16.76507251      18.05017524       0.72376806       0.24820925      -1.08669421       0.32483837      -0.00438947      -0.15735928
H        8.94355169      17.15347211      16.26722131       0.25346871       0.17253695       0.17917439       0.27641862       0.02208274       0.01426802
H        9.95002464      18.17212404      17.43567445       0.03173733      -0.37237845      -0.33825041       0.17822545       0.00582760      -0.37953474
H       11.55526084      16.63645964      16.33392684      -0.87449272       0.12366423       0.33523808       0.29374280      -0.26245064      -0.32528587
H       11.25780258      15.93908600      17.78325151      -0.50724344      -0.00876419      -0.45552775      -0.17747539      -0.05848391      -0.15219741
Pb       0.50945055      12.36813389      20.00312499      -0.00924726       0.76765288      -0.24800095      -1.91415950      -0.19672907       1.32063079
Pb       6.85582881      12.74343943      19.70286522       0.03304434       0.11904842       0.01850643      -2.65290529      -4.33070127      -1.27177060
Pb      -0.06236654      13.36853889      13.39232171       0.15434715       0.02189604      -0.18342122       1.59461144      -0.83183723      -0.75224361
Pb       6.81050448      12.94461056      12.89294573      -0.12630017       0.21732111      -0.02242662      -2.56499959      -0.55012608       3.97810895
I        3.75715879      12.52772282      19.99676613      -0.34188504       0.06518865      -0.01424437       2.09318206       0.04936872      -1.81589771
I       10.24670784      12.67955727      19.66178098      -0.05931781      -0.11525561      -0.09128365      -1.01228388       0.45249298       0.89036277
I        6.05998150       9.30426032      18.98880569       0.04135734       0.00235167       0.04597335       2.69797698      -1.52427315      -0.35621183
I        6.78353365      15.98058266      20.07239451       0.01167509      -0.10224630       0.03742411       3.28160106       1.24995046      -1.48054815
I       10.13698861      12.37658769      12.69362230       0.05578872      -0.04083334       0.07854052      -1.46647855       2.00147588      -1.38605229
I        3.26953530      12.84797752      27.22090843       0.15425895       0.12794007      -0.06347390      -0.22547136       1.57725617       1.41760287
I        6.74033019      16.44174648      26.06981931       0.21352624      -0.24102072       0.19980081      -1.38756135      -1.02988905       2.26989233
I        6.20727869      10.00899098      12.98370874      -0.08291489      -0.23329025       0.07896067      -1.25095124      -1.05590924       1.59557463
I       13.38573370      12.02428946      23.51883999      -0.06109844      -0.01437474      -0.19543307      -2.31177991      -2.02883230       2.40295500
I        1.06701993      13.16261575      16.24543960      -0.01735188      -0.08541703       0.16980534      -1.57261161       0.72852838      -0.21943192
I        6.40254067      13.55436568      16.73896580      -0.02218858      -0.11456391      -0.20698640      -0.80727563       0.33111009       1.36670352
I        6.79731881      12.63417917      23.06654859       0.07602192      -0.09685131       0.16254361       2.81668895      -1.42306337       0.24777143
N       16.19878849      16.61288209       4.05340410      -1.79730315      -1.03749847       0.34278198       0.47058434       0.74718636      -0.19874488
C       17.62701458      16.57445284       3.75927589      -0.11314142      -1.50283311      -1.84833396       0.22333969      -0.26249773       0.65700939
H       17.92459941      17.57427946       3.50195529       0.37237898       0.52419425      -0.48339635       0.01776299       0.30351558      -0.04066612
H       17.80494695      15.79983177       2.92923623      -0.19367044       1.20133044       0.88357736      -0.00257445      -0.12734344       0.22736891
H       18.15792973      16.23527751       4.60925862       0.65858618      -0.32337976       1.14580827      -0.13335494      -0.07872762      -0.12644386
C       15.34346256      16.90021271       2.85836168      -0.80149458      -1.34455367      -0.67264866       0.53917691      -0.73039995       0.26691176
H       15.23307456      17.95155896       2.64808060       0.49150355       0.57813914      -0.20295994      -0.19534354      -0.08005503       0.29535095
H       14.32883672      16.48169737       2.94726358      -0.10569539       0.28364144       0.91464194      -0.06194314       0.31112149       0.03363895
H       15.62689726      16.25162922       1.99868739       0.87833277       0.72969355       0.22492347       0.05364143       0.01825017      -0.13773690
H       16.05619830      17.30750174       4.82221422      -0.10766851       0.10961238      -0.11423507       0.02447959      -0.18386588      -0.25148503
H       15.83508755      15.68774935       4.46343939       0.76812293       0.74234843      -0.24609632       0.00735843      -0.09101376       0.01071437
N       10.16182440      23.57210019      10.82099107       1.12874200      -1.41525091       1.07500653      -0.33912932       0.30713238       1.25442313
C        8.83993394      23.36509411      10.14680751       2.23855843       0.79734347      -1.39604834       0.07348511      -0.99393729      -0.57346904
H        8.05724924      23.18150723      10.84209686      -0.66023902      -0.58559527       0.49322900      -0.36508220       0.31719166       0.04702781
H        9.14617670      22.62963094       9.38137537      -1.05586737      -0.37947987       0.35299521      -0.14521597      -0.08115045      -0.05323214
H        8.66442649      24.26614824       9.56580465      -0.38751157       0.39422922      -0.05935469       0.15469305       0.03669616      -0.09996214
C       11.31850352      23.73590819       9.84162507      -1.17469085       1.09587368      -0.56055628       0.46739246       0.48783255       0.67451497
H       11.25297823      22.94485434       9.12110624       0.19047490      -1.04133997      -0.21965836       0.07385352       0.13536548      -0.05269296
H       12.30690581      23.85393601      10.28879324      -0.03315051      -0.31609515       0.38376785      -0.13726876      -0.07911476      -0.02803359
H       11.15886835      24.63678694       9.18797538      -0.26074350      -0.23200545       0.73522683       0.10114503       0.22683244      -0.06898616
H       10.25113798      22.70622403      11.50994572       0.34780101       0.78484975      -1.18594972      -0.10835600       0.14150689       0.20495111
H       10.22075310      24.32611227      11.51367473      -0.48910246       0.85695588       0.09363931      -0.21175839      -0.11452936      -0.05371798
N       10.93393636      16.61538069       9.90525712      -0.07767013      -0.58567223      -1.36951067      -0.60509962       0.71663766      -0.55904270
C        9.88660624      15.66330405      10.37133384      -0.15670591      -0.57873672      -1.43116944       0.38059846       0.03224659      -0.30364006
H        9.01264021      15.83612387       9.69034397       0.51061355      -0.50550708       0.43273411       0.02535983      -0.12908207       0.30593152
H        9.59361474      15.97935390      11.37459695       0.05947842      -0.32172540       0.20321826       0.26680805      -0.20305518       0.24378299
H       10.33540549      14.63134354      10.25212582      -0.73396132       0.89409795       0.43787507       0.19194785       0.13921715       0.13430860
C       10.38870333      17.97860506       9.69902123       1.77081662      -0.49691642      -1.34734578      -0.84090535       0.30399224       0.61715536
H       11.17098124      18.50491593       9.10644311      -0.58602829       0.20014548       0.54019289      -0.17706186      -0.01695185       0.07235358
H       10.18636615      18.36037194      10.65167275      -0.23024391       1.07356790       1.48906200      -0.06783151       0.15220510      -0.04455974
H        9.48760846      17.89733417       9.14531251      -0.98763380      -0.10795629      -0.71126442      -0.20505828       0.00260243      -0.12192667
H       11.46370919      16.30567752       9.04156976      -0.77078056       0.03800903       0.39205145      -0.16376060       0.11199676      -0.03667182
H       11.63649838      16.59622661      10.62269780       1.07935844       0.34510340       1.19783251      -0.06614385      -0.18118945       0.12581837
N       16.50134333      23.18665795       3.52365531       0.28530413       0.89367182       2.87530609      -0.37952802      -0.52081108       0.82249172
C       16.71605517      21.91969334       2.94071274      -0.23811807      -3.05539421      -1.70967938       0.31800638      -1.03906353      -0.25499185
H       15.95455725      21.78993201       2.12490964       0.44616037      -0.17053582       0.65881500       0.13868027      -0.06704674      -0.24758671
H       16.72263539      21.02579406       3.63563851      -0.35972903       1.07739579      -0.30373918       0.24763209      -0.13468206       0.00661139
H       17.69075407      21.88162375       2.47849609       0.57159663       0.24129769      -0.37781079       0.03396526      -0.05743499      -0.10153256
C       16.13515063      24.24539829       2.61170526       1.88449418       2.13583229      -1.64285179      -0.40617897      -0.30283692      -0.87869552
H       15.98210887      25.19947990       3.15917596       0.20338461      -0.42402675      -0.12012618      -0.38295229       0.13367910       0.10523932
H       15.22873137      24.07409421       2.04346650      -0.35875810      -0.58334887      -0.13916745       0.25915363      -0.16952643       0.06056770
H       17.03257371      24.38045800       1.88339563      -1.39012744      -0.09088607       0.91329688       0.08420208      -0.15240493       0.14180457
H       17.36724379      23.44678377       4.08238174      -0.85099609      -0.02339575      -0.32333982      -0.26472242      -0.12329037      -0.04461056
H       15.73481625      23.10465859       4.22839785      -0.02290288       0.00664719       0.26614418       0.32725212       0.23018817       0.00276743
Pb       7.25196661      20.10668548       6.72436564      -0.11920842      -0.03339752      -0.23014938      -2.18983609      -0.03167055      -3.23407602
Pb      13.25814162      20.11552712       6.17412607       0.38302571      -0.02724560       0.04453265      -2.38940694       3.40007365      -2.48820089
Pb       6.47716063      19.85855704      -0.14338411      -0.08171980      -0.02108945       0.00887810      -3.24564321      -2.69704770       0.22783839
Pb      13.34827446      20.37958478      -0.54230768      -0.10985885      -0.03230803       0.17065863      -0.35521721      -2.62351557      -1.40955996
I       10.34481540      20.65839286       6.46750886      -0.20135453       0.05583625       0.06748893       0.98042462       1.39976118      -1.70323870
I       16.98987963      19.40431055       6.09574513      -0.04400952      -0.07475730       0.21872265       0.20775785      -2.18342446      -4.74760110
I       13.01735993      16.82522783       6.47513553       0.03950652      -0.14390682       0.02341722      -0.13285574      -1.57367061      -0.77976735
I       14.20786288      23.32561136       6.42253535      -0.12107613      -0.01550129      -0.07073093       2.73328012       2.39031409      -0.19389926
I       16.50768001      19.76201720      -0.96626940       0.09177871       0.05945950       0.14629644       3.51806909      -2.02923499      -1.18222036
I        9.76125925      20.87981761      13.07088902       0.18057635      -0.08439765       0.03112801       1.27280905      -1.84814366      -1.53600430
I       13.72127322      23.60474750      12.52921052       0.08700233      -0.43395906       0.25363123       0.82482363      -0.63963702      -0.52962909
I       12.35390153      16.92367770      -0.54150333       0.24269940      -0.05053486      -0.08226545       0.71539594       2.42741992      -0.55578981
I       20.17253558      19.50435661       9.96645132      -0.06349309       0.12136137      -0.18735627       1.22140917      -0.13465619       2.76331673
I        6.96866692      20.13100460       3.39473355      -0.09676264       0.00827544      -0.06022326       1.09093114       0.03307103      -3.29131778
I       13.26096500      21.22700291       3.09809988       0.10268032      -0.15413170      -0.03109678       1.87307593       1.14754397       0.83020017
I       13.35404770      20.02661458       9.57613208       0.04214401      -0.03252871       0.01879242      -0.07963410      -2.43163255      -0.52751596
N       17.07716976      15.88879656      16.55526601       0.82041924       0.99883760       1.10072930      -0.14769979       1.22119468      -0.52178391
C       18.35964390      16.48169369      16.16440357      -0.41629861      -1.59112744      -1.86816159       0.31006765      -0.54026666      -0.60654365
H       18.17149701      17.09945008      15.32396779      -0.38021336       0.64930145      -1.15368042      -0.08566547       0.09835155       0.07383420
H       19.09184012      15.75746391      15.85898355       0.37215518      -0.67194773       0.17075377       0.01092033       0.22083107       0.09203692
H       18.69826074      17.12905795      16.88971987       0.86428409       1.18427039       2.12583217       0.04822694       0.06933677       0.13034602
C       16.18156853      17.04317674      16.74216301      -0.07620251       0.18901694       0.33481659       0.50819629       0.10014104       0.54709470
H       15.38093018      16.68307977      17.33293877      -1.13113854      -0.20090158       0.94822143      -0.00691203      -0.19689031      -0.16617915
H       15.74630602      17.29108388      15.77529988       0.24297590       0.60619643      -0.20266589       0.02961271      -0.35060092       0.02315703
H       16.70311887      17.87171957      17.30256906      -0.44948493      -0.67413503      -0.74856089       0.10009434       0.07693056       0.05455061