880
Lattice="26.849396866138882 0.24029202839318972 -0.03915110610807755 0.21188555177134563 26.707436482775837 0.14116400380674812 -0.07753273430123314 0.13352587403034955 26.762358961351968" Properties=species:S:1:pos:R:3:forces:R:3:momenta:R:3 energy=-3847.64453125 stress="0.002207898302003741 0.0015392992645502088 0.00014305725926533341 0.0015392992645502088 0.0002608714567031711 0.0004013912111986428 0.00014305725926533341 0.0004013912111986428 0.0008093721698969602" pbc="T T T"
Cs      10.39433076      10.27857640       3.77584784      -0.01978918      -0.09154981      -0.02003163      -0.81646045       0.43663585      -1.70921032
N        3.05505380      17.05179964      10.80971767      -0.60413819      -0.93562105      -1.06493639       0.30014835      -0.45817403      -0.34929419
C        4.49329498      16.64131999      10.77937329      -0.47784939      -1.23044472       0.15000068       0.24676439       0.33772625      -0.14256810
H        4.62377457      15.78297890      10.10228305      -0.00058622       0.34463767      -0.04631421      -0.05460128       0.02231735       0.07093364
H        4.78904297      16.33462257      11.80638385      -0.10163252       0.20507945      -0.39058126      -0.00853532       0.10487587      -0.19454478
H        5.02388201      17.52263396      10.49664721       0.74931756       0.55726936      -0.45524400       0.01268108      -0.03574715       0.03447025
C        2.27996626      17.23316081       9.48976711       0.01393372       1.04707763      -0.05951202       0.09542829      -0.88065064       0.25835908
H        1.96467994      18.32469226       9.35686850       0.24312713      -1.28845681       0.36857175      -0.09674622       0.03614283      -0.05827770
H        1.43244771      16.52231356       9.35588587       0.26884564       0.42605952       0.71491823       0.03630839       0.09280510      -0.05133339
H        2.93650870      16.98207638       8.66952104       0.70098984      -0.04178197      -0.27217813      -0.00577750       0.13044520       0.11359158
H        3.11427539      17.88208053      11.38378802      -0.76033684       1.08847536       0.50294235       0.14713867       0.01637663      -0.04156628
H        2.51546791      16.34989859      11.31220281      -0.07528017      -0.22048167       0.56930186       0.30927984       0.11263852      -0.08127759
N        3.67055347      10.61801673       9.43386303       0.74342564       1.24138780      -1.24739250      -0.13453766       0.34378852       0.39569117
C        2.78356750      10.07453301      10.47860660      -0.96645278      -0.00686961      -0.23760615       0.96117930      -0.11916329       0.21754879
H        2.09707889       9.36150611       9.99135016       0.12367507       0.08046501       0.05809259       0.06444256      -0.20556435       0.01186687
H        2.16138839      10.93625342      10.82433182       0.52608956      -0.71326959       0.31901197      -0.15028371       0.07914784      -0.01810083
H        3.38834959       9.54301495      11.21878657      -0.12658374       0.25705940       0.27863147      -0.02776248       0.10163101      -0.27676027
C        4.43583728       9.62223951       8.58490023       0.85784703       1.18908837       1.26808246       0.46044624       0.08512253      -0.41364066
H        4.79647272       8.80022732       9.18173724       0.03366030      -0.31708457       0.62051383       0.03341613      -0.02008029      -0.09134943
H        5.32768225      10.13692433       8.17390235      -0.47434442      -0.05334134      -0.09174344      -0.03195907       0.02573535      -0.01212545
H        3.78763042       9.25561644       7.85200165      -1.03821281      -0.56993147      -1.35456432       0.12868441       0.02259511       0.17703098
H        4.37542243      11.29934432       9.83929624      -0.51002516      -0.45196638      -0.04281527       0.10110027      -0.23179756       0.09461258
H        3.07322601      11.22151562       8.78862351       0.66042891      -0.54768273       0.47604703      -0.03797012      -0.13248780       0.05644554
N        9.89361114      16.08733439       3.98048315       0.41640866       1.57145573       0.31152827      -0.45255877       0.52746256       0.40724335
C        9.91753502      15.61001177       2.55918076       0.82517668      -1.43292443      -0.05128706      -1.63237657      -0.21765237      -0.26454911
H        8.90727336      15.37067164       2.13936796       0.51950112       0.72824693       0.41759865       0.18944842       0.11508932      -0.04432944
H       10.44446122      14.63546390       2.60987156      -0.09174076       0.17707706      -0.13376157      -0.20509812       0.10864000      -0.17764017
H       10.57411536      16.24338017       1.92380247      -0.68802367       0.12738143       0.37105593      -0.07096316      -0.06172666       0.09282527
C        9.24011098      17.48456734       4.07796339       1.33231860       0.25214760       0.00823051       0.22112266       0.54992499      -0.89670721
H        8.60552638      17.69288862       4.93355372      -0.32336470      -0.68470572       0.36788462      -0.08199642       0.04287494       0.12030900
H        8.71640812      17.70333635       3.15247706      -0.16859733      -0.23938727      -0.25700919      -0.04175942      -0.05765457       0.06408424
H       10.05177250      18.24021236       4.19771088      -0.13207241      -0.49629078      -0.35908021       0.13189218       0.19129292       0.08581092
H       10.90288352      16.23058564       4.34556260      -1.42012272      -0.51728791      -0.54517408       0.13894860      -0.15155588       0.10882706
H        9.47055846      15.34572124       4.60981003       0.12057925       0.54574446      -0.12977478       0.04810210       0.06632557       0.09022855
Pb      -0.41273561      13.02542876       6.34411135       0.14312297       0.20153299       0.21800882      -1.77292801       3.19124151       8.85710916
Pb       6.68354034      13.55212658       6.67109376       0.02429539      -0.22473662      -0.05598516       0.95112891       0.29697585       1.81315479
Pb      -0.10671490      13.47252764      -0.26864022      -0.00377901      -0.15809565       0.06364199       5.01446495       0.99715330       2.33647680
Pb       6.68273166      13.13487113      -0.04286485       0.09835332      -0.08071107       0.02481062       3.87392643      -1.80282991      -2.16936599
I        3.35428139      13.27865908       6.38982648       0.01121783      -0.15641505       0.06058893       1.69787145      -0.90737604      -3.64187203
I        9.85151697      13.78419907       6.69213335       0.02737586      -0.31250995      -0.02051740       0.80623544       0.54076725      -1.10665382
I        7.22934819       9.71272921       6.40984229       0.05661799       0.30281140      -0.16752642      -0.58631600      -1.56356496      -0.46414806
I        6.98822895      16.52503137       6.84289165      -0.20562856       0.12047578       0.20313945      -0.50636208      -0.80456382       1.29199681
I        9.78886570      12.65811818      -0.26182867       0.03984536       0.13222085      -0.12671756      -2.43829677      -1.31917814      -0.21523440
I        3.35227580      13.32440819      12.83418778      -0.35446526       0.10240605       0.02150945       0.12037091      -3.21332253       0.06671230
I        6.59655709      16.69293683      13.95099241       0.06528097       0.13193372      -0.01083993      -0.35578782       1.22234344      -0.55992178
I        6.47483370       9.84989790      -0.11808738       0.14730638      -0.28546282      -0.04018005      -0.03944716      -4.31726823      -1.62837901
I       13.74789905      14.23664717      10.01471635       0.20768144       0.03137220      -0.67544340      -0.83307317      -2.23857310       1.36794933
I       -0.61460608      13.14185887       3.31388815       0.05545870       0.14844501      -0.07085474      -1.64297392       1.88793578      -0.93703620
I        7.09593712      12.31576771       3.21286276       0.06060469       0.24091627       0.07590062      -0.67867157       3.20869581      -2.12280427
I        6.52735151      13.23688623      10.08161986      -0.00600268      -0.01823058      -0.46964071       1.23895304      -0.46411175      -2.21292557
N        8.71588664      10.54123723      16.64684200       0.00850844       0.09108368       0.27727437       1.53686954      -0.82123191      -0.55165803
C        8.37691613       9.61499706      15.53854796      -0.36660618       0.41402142      -0.63032559       1.24842801      -0.49175577       0.71850423
H        8.57956199      10.03492553      14.53890924      -0.49409630       0.59438787       0.28559665      -0.05935403      -0.13487974      -0.13931914
H        7.32721137       9.21496081      15.68173812       1.02134605       0.33732826      -0.24877896      -0.36904015       0.07673567       0.08339154
H        9.13340098       8.86881507      15.59700581       0.48273154      -1.28492278       0.35674990       0.11641912      -0.08599642      -0.32750368
C       10.22013116      10.85842560      16.83532669      -1.56017292       0.77131306      -0.18155805      -0.26802212      -0.29401191      -0.18735405
H       10.38982121      11.10533990      17.87075367      -0.11006484       0.54694531       0.58621550       0.17373153       0.16207500       0.21781956
H       10.51586758      11.68654441      16.17216847      -0.10477437      -0.29042705       0.00515756      -0.15249251      -0.47557533       0.12632864
H       10.79066399       9.97289597      16.69417358       0.41033275      -1.05127888      -0.66594384      -0.01460171       0.12717925      -0.09579653
H        8.40343646       9.98181910      17.44146144       0.21618256      -0.01575875       0.87074787      -0.41367971       0.35892687       0.03918471
H        8.04788857      11.37628547      16.73206926       0.68201920      -0.07927745      -0.47816652       0.16387073       0.08340933      -0.03278279
N        2.95485981      16.23559467      23.77507505       0.22148268      -2.03083633       0.29207434      -1.80928389       0.64374173       0.15948221
C        4.34773008      16.57256333      23.36712380      -0.17052984       0.78765374       0.11613508       0.11130879       0.32539222       0.24761740
H        4.90094607      17.06824850      24.15677631      -0.01551716       0.01674791       0.60417708      -0.07585492       0.44810294      -0.15234811
H        4.26536343      17.29531104      22.57655739       0.07179431       0.35047782      -0.75077587      -0.06691569      -0.25729960       0.03910819
H        4.90892173      15.69913026      23.06522326      -0.03711882      -0.50825834      -0.25101444      -0.05896709      -0.00985730       0.09274723
C        1.97885535      16.05375244      22.63740303       0.12392342      -0.12186094       1.62720864       0.33334814      -0.70315937       0.93701220
H        2.03668822      16.93719752      22.04508455       0.08023071       0.75421441      -0.72904220      -0.11922570      -0.22702482       0.32960175
H        0.98026717      15.97474167      23.10515484       0.22940700      -0.16898059      -0.33347886       0.19922068      -0.22670624      -0.20432595
H        2.31460809      15.16630102      22.13811448      -0.10140130      -0.48246752      -0.64120144      -0.03757349       0.05749923      -0.14507727
H        2.50522928      16.88494536      24.41891345       0.22533877       0.45697161       0.56215017      -0.01098425      -0.15695116       0.05345444
H        3.04428453      15.30190579      24.29133709      -0.50431566       1.10276263      -0.22653568      -0.12108262       0.22563739       0.10175746
N        3.90176349       9.99475650      22.87833267       0.65671299       0.37581601       0.92672184       0.13250516      -0.47199970       0.15818188
C        2.88731471      10.26142205      21.90751885      -0.57479121      -0.42319758      -2.01916656       0.67129701       0.39239777       0.69930742
H        2.32635838      11.15348380      22.14932864      -0.16173951       0.40088107       0.21803568       0.08559983      -0.12324136       0.05835974
H        2.19518899       9.39189657      21.79483967       0.36343149       0.36573620       0.32829206      -0.01017514      -0.21448837      -0.17541100
H        3.42357139      10.37168306      20.96005173      -0.29098993       0.21103801      -0.15204640      -0.16761619       0.04124366      -0.05853880
C        3.32231167       9.87251704      24.21373153      -0.34219456      -0.09980304       1.09639070      -0.16415565      -0.02626802      -1.77422696
H        3.13754600      10.88557791      24.61144499       0.36100509      -0.17751631       0.10862434      -0.06695593       0.29225439      -0.04283280
H        3.98066468       9.26178643      24.84853748      -0.13216852       0.32193562       0.03119585       0.10976328       0.06025783      -0.05640044
H        2.33038891       9.42934810      24.14388658      -0.06540018      -0.44800276      -0.15225146       0.09750937       0.18042643      -0.17358162
H        4.63640957      10.71502882      22.93416770       0.03987694       0.64069308      -0.22942623      -0.25658419      -0.19164715       0.04352218
H        4.45521743       9.20758642      22.56430263       0.30719647      -1.23932975       0.06274361       0.00901893       0.14917794       0.19275421
N       10.91565989      16.66132754      16.45074788      -1.07368628       0.13857039      -0.88378731      -0.24687818       0.34357981       0.77952365
C       10.31829360      17.48317465      15.33082666      -1.11702290       0.63432843       1.47913094      -0.22345654       0.32549034       0.13890829
H        9.51030831      18.11217809      15.84075360       0.57675032      -0.91764860      -0.88243747       0.05653810      -0.06508712      -0.01425864
H        9.93626083      16.84245242      14.51993911       0.12895505       0.27237886       0.24864096       0.00439176       0.01719574       0.35482452
H       11.06023339      18.20883035      15.08171511       0.68967364       0.38142609      -0.92030317      -0.13185649       0.17835333       0.08530876
C        9.82917452      16.35036784      17.41606922       1.84859122      -1.98119550       1.68797636       0.80710107      -0.08063401      -0.05680221
H       10.28269229      15.66992800      18.21679635      -0.70716140       0.64385927      -1.00799829       0.33818719       0.01517171      -0.16984716
H        9.03065218      15.86494059      16.90058361      -0.60401564      -0.58533225      -0.57091308       0.09170638      -0.33560982      -0.07042375
H        9.43266859      17.18728609      17.92709479      -0.18435196       1.42665432       0.34412186       0.05489362       0.02876019       0.18317745
H       11.68455866      17.22258691      16.85927682      -0.00431669      -0.55232988       0.23079643      -0.02764852       0.05775983      -0.06978196
H       11.25629566      15.74022338      16.07037077       0.47553340       0.52313558       0.32947471      -0.11839478       0.16471384       0.03594314
Pb      -0.01268024      13.59201880      20.00873079      -0.20323856      -0.07365542      -0.01426846      -2.45081836      -0.89330012      -4.39425049
Pb       6.75203525      13.52347650      19.81864054      -0.01317057      -0.00687287       0.36201003      -1.40658014       2.18745520       1.52264341
Pb      -0.26905973      13.20669370      13.12058558      -0.04092058       0.01205192      -0.03903754      -0.05385907       1.50833200       1.08362050
Pb       6.31915680      13.02690857      13.05296188       0.20477729       0.22126947       0.27648717       2.23923441       1.75621890       0.64608935
I        3.22995953      13.53706342      19.95347683       0.25468884      -0.05899264       0.01964181       0.47337165      -4.00747680      -0.37200586
I       10.01560093      13.11445772      20.62694651      -0.14942490       0.08634999      -0.16198504      -2.18293559       5.43030246      -1.54874709
I        6.36207652      10.06578636      19.95785178       0.18075806      -0.02194235      -0.07577898      -2.36087003       0.18029756      -1.71133710
I        6.74424906      16.80233443      19.99817600       0.16784721      -0.17970831       0.10620000      -1.36764287       0.16846977       1.08134356
I       10.20495409      13.32168306      12.65426930       0.01137014       0.29252844       0.28529879       1.52099361      -0.73727526      -1.24780937
I        2.94097450      13.60776421      26.81090565       0.13619398       0.11599025      -0.30445129       1.98839484       0.04013473       2.44153702
I        6.70370800      16.51199166      27.09905040       0.02014760       0.04870368      -0.15740678      -0.82701334       0.64792795       1.23786559
I        5.88442848       9.97321695      12.98882427       0.21348448      -0.04141116      -0.33001178      -2.24441386      -1.09932336       0.47997910
I       13.46821604      12.82623734      23.52160434      -0.08281977      -0.10870757       0.12799450       0.43112315       0.91000677      -1.99063615
I       -0.27119047      12.78647782      16.91837643      -0.00333900       0.12453118      -0.12748666       2.12049594      -0.89765411      -1.34987660
I        6.40235057      13.25640128      16.83039050       0.05711315       0.13751105      -0.12547048      -0.58498893      -1.36976784      -2.32094035
I        6.59922995      12.79413005      23.32950113      -0.09799906       0.09425656       0.06480455       1.31479740       2.58642158      -1.54779030
N       16.35039286      16.46771416       3.64516544      -0.85629949       0.96695324      -0.01925564       0.58904337      -0.49463379      -0.91445313
C       17.80234471      16.85291662       3.65237972      -0.92055335       0.36213991      -0.64298641      -0.64367962      -0.61393133      -0.13523247
H       17.83540524      17.90755277       3.26693771       0.28529218      -0.90111238       0.07608734       0.01884680       0.13687129      -0.16469629
H       18.23225682      16.09198680       3.01333744       0.77617466       0.20327213      -0.37074591      -0.06921627      -0.12323916      -0.02828783
H       18.20977411      16.80691166       4.65272751       0.09225249      -0.10082838       0.41148849       0.03235560      -0.09306246      -0.24660851
C       15.64952595      16.87747172       2.36536529      -0.24273084      -1.47319031       0.06161601      -0.46788402       0.61374327       0.00906582
H       14.61106393      16.55902080       2.45074075      -0.35794635       0.05214970       0.39008470       0.29369241      -0.11400807       0.05656094
H       15.98370076      16.25043128       1.49096982       0.49176589       0.89471038       0.78214891       0.09872773      -0.20890430      -0.01345731
H       15.64989958      17.95744601       2.25520745       0.47055365       0.14829362      -0.19756166      -0.06643907       0.09278257       0.12336011
H       15.90145946      16.99072309       4.45506586       0.07278147      -0.79087715      -0.63483090      -0.12432607       0.09082563      -0.31277771
H       16.19169656      15.43530479       3.78339194       0.27594874       0.60545374       0.36111824      -0.19395359       0.22142353      -0.03329043
N       10.62488300      24.41250232      10.33312230      -0.85915980       1.78501923       1.25904082       0.51109372      -0.43019516       0.17333076
C        9.57255266      23.34875688      10.24218459       0.68720240      -0.81687179      -1.64183173       0.18496520      -0.72244536      -0.87056102
H        9.58983948      22.79138333      11.19550421      -0.04605546       0.03975010      -0.33510415      -0.14431020       0.01459892       0.33675084
H        9.93442060      22.67137107       9.36253419      -1.04871635       0.86762244       1.42621966       0.21100772      -0.25377916      -0.24463093
H        8.59228263      23.82975876      10.07011526       0.30533188      -0.27698581      -0.04421779      -0.21196536       0.08148776      -0.02492108
C       11.99107641      23.87517339      10.46108502       0.04069257      -1.35501497      -0.83166604       0.02931326       1.31670471       0.42229077
H       11.83457917      22.82459558      10.05840273       1.22291202       1.14764449       0.04904899       0.15556399       0.17404789      -0.19491159
H       12.21837032      23.76186825      11.50110047       0.21731771      -0.03776021       0.87006007      -0.11462964      -0.02302414       0.20693448
H       12.75528096      24.56011523      10.00990499      -0.64777719      -0.74298916      -0.00317578       0.18216309       0.40886899      -0.13968034
H       10.35501939      24.95296617      11.21368448       0.53622396      -0.17442512      -1.08976792      -0.08945387      -0.01369593       0.24325999
H       10.62299958      25.10756548       9.54731365      -0.41908790      -0.42509222       0.24892220      -0.22271837       0.07141207       0.21669251
N        9.29374880      17.60655754       9.32557227      -0.25930985      -1.99427440      -2.77871933      -0.58249829      -0.74720513       1.02239544
C       10.39051475      16.53248843       9.44963871       0.52049126       1.54287534       0.43013007       0.03889041       1.10019128       0.40077690
H        9.88097231      15.68882691       9.85512175      -0.24533961      -0.97044829       0.53302598       0.23464660      -0.19634669      -0.20626595
H       11.13803326      16.94602973      10.18633310      -0.55660670      -0.41786329      -0.59215148      -0.05107109      -0.18503241       0.07599206
H       10.90976703      16.25315394       8.51345861      -0.42944815       0.36610750       0.06876781      -0.27620363       0.10724522      -0.00772105
C        8.86590698      18.09014398      10.56938399       0.01655516       1.29697318       3.60609007      -0.25986808       0.46135835       0.55974663
H        8.98777640      17.30145081      11.32226624      -0.01821059      -0.15553198      -0.06730953      -0.29089945       0.08237373      -0.13535747
H        7.84459981      18.47083882      10.71389597      -0.17950422      -0.19325985      -0.82509967      -0.21232523       0.09833829       0.19879037
H        9.49736852      18.93428144      10.91852177       0.09350108      -0.27148336      -0.22740137      -0.15770104      -0.14920678      -0.12686434
H        8.41660524      17.14693517       8.83672129       1.35091995       0.69785531       0.06199398       0.31093511      -0.03921579      -0.39632013
H        9.67380536      18.36791583       8.73180279      -0.23134961       0.11945405      -0.28269958      -0.03726906       0.18022370      -0.15110316
N       16.83386553      22.93465680       4.27682361      -0.29254324       2.10116912      -0.39157177       0.34127275       1.07052476       0.94180480
C       16.33626525      22.96334082       2.86795742      -1.81380757       0.35634683       0.74592720       0.25056955       0.36478029      -0.89958308
H       16.95050542      22.40424167       2.20112507       0.70572004      -0.57837237      -0.47835602      -0.21117209      -0.37453066       0.29268880
H       16.33082579      24.02186881       2.60135301      -0.10549898       0.06095114      -0.29806885       0.04098281      -0.03714194      -0.02468490
H       15.26620948      22.57528663       2.88386715       1.16460453       0.28704749      -0.22745527      -0.07382023      -0.00203743       0.12238896
C       17.93243697      23.92070224       4.54927742       1.77853524      -2.87583059       1.72019940       0.78993513       0.94829607       0.09621565
H       18.12292729      24.02264487       5.65696137      -0.44948330      -0.16575398      -0.81096699       0.11439603       0.08323562       0.14257391
H       17.73438554      24.83925046       4.13561277      -0.90100156       2.29233278      -1.19959374      -0.04672944      -0.38977619      -0.15733530
H       18.89900019      23.53273577       4.12987292      -0.77508554       0.11821413       0.01958561      -0.10720949      -0.09749161       0.24058443
H       17.08100911      22.01373052       4.57075331       0.51859019      -1.58977376       0.51524303       0.06796272       0.40352543      -0.21166782
H       16.02047322      23.20769087       4.85097702      -0.06026405      -0.02688582       0.29361024       0.05673689      -0.07033885      -0.24100323
Pb       6.86770441      20.42073612       7.19253267       0.04134635       0.04663193       0.05233418      -1.74301825       2.60146759      -2.21154645
Pb      13.76633457      19.61818575       6.66212566      -0.03794290       0.33377155      -0.06294434      -0.74378646       0.34576996      -3.34076090
Pb       6.66563130      20.09126141       0.49028805       0.29110911      -0.15439571      -0.15168106      -3.62381085       2.27876187      -2.55747944
Pb      13.49035178      20.05532699      -0.12957942       0.04576367      -0.03405975       0.08151065       0.68283164      -1.46127022       2.26445794
I       10.31197212      20.51100429       7.10898666       0.03709918      -0.12660056      -0.01984570       0.18612850      -0.86546220      -2.41816169
I       17.00123082      19.96696374       6.34966552       0.00891801      -0.04940589       0.09413981       0.97933784      -0.64730941       1.56251194
I       13.57264845      16.67432875       6.17644070      -0.06426557      -0.30843949       0.00596344      -0.02855511      -1.96541443      -3.44619131
I       13.64421678      23.64855920       6.61915037       0.10953004       0.00712093      -0.07348209       2.94470455       0.75095837       2.42526389
I       16.75571922      19.62938568      -0.11831087      -0.05754826       0.17427525      -0.07114195       0.62479085      -1.05709897      -0.30555059
I       10.93290139      20.93615437      12.90691727      -0.39230778       0.08904815       0.27432317      -1.71305610      -3.57372922      -0.28232648
I       14.28040598      24.20807589      14.02250103       0.18643677      -0.67081598      -0.03806324       0.87450030      -0.84142378      -2.80994522
I       13.12091974      16.70880486       0.07032799      -0.29976889      -0.15496455      -0.27947652       1.20260265       1.54724369       0.95101037
I       19.72502133      19.44045871      10.16816945       0.13019247       0.35123670      -0.06636054       2.67349646       1.57179307      -1.54624485
I        7.21111032      20.73886619       4.19560323      -0.01928744       0.16788748      -0.39647744      -1.32524171       1.33724611       1.98697844
I       13.36029829      19.91678686       3.49138755      -0.09278165       0.14994414      -0.12113185      -0.68377098      -3.25615030      -1.15057048
I       13.40904643      19.68011667       9.85390044       0.03631557      -0.01924352       0.01442103       0.81271536       2.73681312       1.38947208
N       17.09554655      16.67101486      15.85786605      -0.77944994      -1.46038783      -0.02823326      -0.05360257      -0.88147220      -0.28334542
C       18.26154263      16.43546385      16.82090140      -1.06966041       1.74915497      -0.98038778       0.06968139      -0.05874625       0.25012203
H       18.29076909      15.45700047      17.24906917      -0.47993555      -0.48073829       0.64181946      -0.23424112      -0.00649618       0.04425709
H       18.20215619      17.34686015      17.41351015      -0.11485249      -0.37807472       1.09863706      -0.03079755      -0.04939859      -0.04346683
H       19.16542336      16.62551432      16.28586866       0.81747790      -0.29188012      -0.83670700       0.12192926      -0.01647091      -0.00192597
C       15.81942508      17.21166444      16.44291061       0.34260517       0.12247407       1.35268826      -0.53305831       0.11705971      -1.05051754
H       16.02126039      18.19905350      16.91023683       0.00499694      -0.30553412      -0.36627676       0.28317301      -0.20924026      -0.20274633
H       15.53033313      16.53337186      17.26969161       0.04938731       0.08750124      -0.34283004      -0.12569190       0.16814570      -0.03237685
H       14.99702053      17.26680687      15.70871605       0.44053141      -0.04838192      -0.02756137       0.07819877      -0.17040228      -0.03044982
H       16.77016063      15.74494672      15.40517146       0.97375178       0.99539887      -0.03632527       0.19818909       0.13180423       0.09732581
H       17.45480552      17.33481521      15.16219558      -0.13847892      -0.16061186      -0.45070092      -0.01313404      -0.03941517       0.02955920
N       10.81828126      22.94077070      23.72944763       0.09737772       1.71351791      -0.67491776      -0.42614805      -0.52345990      -0.79499940
C       11.14149574      23.60925603      22.41036436       1.14824906      -0.10499504      -1.07748132       0.01550893       0.21002558       0.33913445
H       12.23270687      23.86389047      22.29724374      -0.72242962      -0.14886896       0.50317299      -0.03382229      -0.05565394      -0.10892477
H       10.54021559      24.54682026      22.34567666       0.36890854      -0.58104006      -0.02381342      -0.03565183      -0.14215386       0.09006109
H       10.95285327      22.95903646      21.48996247      -0.30871501       0.38086384       1.32043437      -0.20505870      -0.26399227      -0.14122238
C        9.38642857      23.17197723      23.92718047      -1.82369064      -1.14683226      -0.84809508      -0.03014666       0.98014495       0.34076858
H        9.17658749      22.91217025      24.94766390      -0.57655215      -0.65318456       0.52471807       0.02814264      -0.10320301       0.12783014
H        8.78657879      22.57452586      23.13349687       0.86416637       0.64348907       1.38619113       0.22484840      -0.12773016       0.13476747