960
Lattice="27.46421001890843 0.06346632157324164 0.25059512937254036 0.0896535329555658 26.89608336930105 -0.1488306670117852 0.21660824182896268 -0.10760191010524561 27.244501782242036" Properties=species:S:1:pos:R:3:forces:R:3:momenta:R:3 energy=-4267.685546875 stress="0.0006671005976386368 0.00034587655682116747 -1.8110062228515744e-05 0.00034587655682116747 -1.146190788858803e-05 0.0001088590215658769 -1.8110062228515744e-05 0.0001088590215658769 0.0022204469423741102" pbc="T T T"
N       11.01493522      10.18288639       4.35782106       0.67614414      -0.13704964      -0.91230488      -0.12002600       0.31673417       0.80563912
C        9.77957398       9.70700331       3.68855978       0.02387392       1.26542578       0.98508354       0.72562211      -0.54362202       0.67965865
H        9.47840610      10.66670611       3.24808584      -0.80796789      -0.76136955      -0.86518041       0.18912348       0.03247570       0.21692244
H        9.11049143       9.47590344       4.51008473      -0.59315158      -0.30811384      -0.04300246      -0.01240738      -0.00690422       0.22364556
H        9.96441626       8.86155437       3.06446225       0.07467331      -0.44034545      -0.78997087       0.18543907       0.05186927      -0.03851183
C       11.99437464      10.71540207       3.34944989       0.67909707       1.28990493       0.49199194       0.79743111      -0.07472153       0.45029672
H       12.84701927      11.28822278       3.82817790      -0.55928201      -1.15718562      -0.08371439       0.13816730      -0.00491145       0.11246305
H       11.52328138      11.53654105       2.80195951      -0.51637406      -0.15638315      -0.22750450       0.07708945      -0.38457011       0.20270890
H       12.30546503       9.95435462       2.62771938       0.10998877      -0.21726438       0.26692729      -0.28604734      -0.17319256      -0.21015908
H       11.43198658       9.46778800       4.96991006       0.20093065       0.02282721       0.19928053       0.20662045      -0.06709508       0.09095151
H       10.63099596      10.95871814       4.89322219       0.67218881       0.56419883       0.99836933      -0.14177968      -0.01436732      -0.29301451
N        4.72367902      16.90940615      10.23868876       0.50672575       1.06055412      -0.84120899       0.54476232      -0.94604188      -0.65675795
C        4.28335581      15.99411963      11.25608060       0.52334247      -2.65797735       0.98041048       0.45344977      -0.00881200       0.12292561
H        4.32053961      14.97089270      10.74370293      -0.19094632       0.93081907       0.75443409       0.17073532      -0.12617756      -0.15155158
H        3.25339277      16.14618926      11.64372097       0.42800521       0.44270253      -0.40750730       0.08138401       0.20186859       0.26394686
H        5.03906338      15.96920470      12.09664137      -0.67184400       0.16614017      -0.56327469       0.08036996       0.21899573      -0.14073197
C        3.81678155      16.83649055       9.06074005       0.64141081      -0.18034057      -0.29165178       0.55848239       0.57925121       0.45602573
H        3.93476848      15.86199961       8.59934302       0.10946077      -0.34245578      -0.17935532       0.14779255      -0.19784757      -0.10698665
H        4.04113062      17.60872661       8.35144994       0.33919505       0.54600388      -0.45197816      -0.04470138       0.07879703       0.21869043
H        2.79726562      16.94151172       9.33529108      -1.08771878       0.18302699       0.74640026       0.18944985      -0.03871019       0.01917590
H        5.68387467      16.65448851       9.91523040      -0.25554927      -0.11016092       0.08739812      -0.00082174       0.34375749      -0.02637434
H        4.87049272      17.88292502      10.58939657      -0.35005574       0.10646972       0.00105163       0.04458748      -0.17600357       0.09797718
N        2.28597355      10.05784669      10.22999082       0.10647648      -1.81877228      -0.30241858      -0.52040904      -0.51582672       0.37783889
C        2.90505628       8.72867544       9.78210514      -1.82587905       0.64952888      -1.48513430       0.50753149      -0.55767605      -1.03170183
H        3.15669774       8.85194970       8.70385036      -0.19471570      -0.13986651       0.47275623       0.23826904      -0.15599835      -0.13736994
H        2.12038921       7.93539488       9.88324308       0.82185959       0.42734657       0.12354658       0.02639619       0.07390659       0.17840067
H        3.81339354       8.61240298      10.30717413       0.99327349      -0.52183037       0.96484337       0.27403676      -0.14217650      -0.06333637
C        3.30944034      11.14875915      10.10608058      -0.96743147       0.39124631      -0.39450296      -0.27749219      -0.17878343       0.78087232
H        4.12038342      11.14232436      10.83962696      -0.15922523      -0.57203339       0.25398574       0.06689784      -0.10033644      -0.11698440
H        2.72191622      12.06033909      10.24486439       0.25716864       0.37834159      -0.27562517       0.25420869       0.25080675       0.03766254
H        3.73332199      11.05522244       9.09582073      -0.09092162       0.27083166       0.08813329      -0.13610222       0.10941864       0.12233574
H        1.91852533       9.87935624      11.18349521       0.21633830       0.58278802       0.33686087       0.11257944      -0.06961372       0.14186370
H        1.40477518      10.19775035       9.65105978       0.82352245       0.41166300       0.09487191      -0.10308268      -0.26951734       0.02756892
N       11.10665647      16.57704561       2.88113322      -1.17871098      -0.03030642      -0.28522540       0.42864278      -0.27353875      -0.47834689
C       10.87257289      17.76214556       3.75225826       1.44105691      -0.58465882      -1.00677402      -0.55793030      -0.06106876      -0.00202169
H        9.86131191      18.01213324       3.61473287      -1.39520815       0.99692916      -0.42860001      -0.19422523      -0.08648570      -0.22626657
H       11.63256020      18.49179472       3.45855012      -0.31771735       0.42238588       0.32739952      -0.06223162       0.14503829       0.10915046
H       10.96471097      17.41077265       4.75542062       0.39215896      -0.08005830       1.09639329      -0.28594641      -0.29921022       0.01972292
C        9.96766950      15.61588539       3.06512396       0.28420198      -0.01129621       1.01640184       0.41118500      -0.46055087       0.99599461
H        9.89347429      15.38544124       4.17935878      -0.03964185       0.15474617      -1.26859182      -0.11897518      -0.04543519      -0.15970017
H       10.14116002      14.73345344       2.47721964       0.38878371      -0.75263542      -0.14745735       0.02454175      -0.21517480       0.05004106
H        9.03365178      16.01453215       2.64695035       0.05694096       0.48317247       0.31666953      -0.23061040       0.14715124       0.22811218
H       12.00330853      16.17133591       3.10260082       0.85740011      -0.91756182       0.61396643      -0.24725139       0.16163934      -0.02540577
H       11.26982754      16.79630588       1.88181881      -0.41056013       0.34530766      -0.19463243       0.21418815       0.11752755       0.14608163
Pb      -0.22844252      13.36232746       6.20281139       0.02728801      -0.12474425       0.22555497      -0.97461844      -1.05132748       1.12556261
Pb       6.52635648      13.01057768       6.90844026      -0.15906474       0.30312424      -0.09688776       1.62613301       0.89248028      -4.26239502
Pb       0.32190152      12.86416693      -0.24335568      -0.60148439      -0.13015011      -0.00208122      -0.45277704      -2.56273917      -4.72581421
Pb       6.58125131      13.33468598       0.16857519       0.26810394      -0.04867195      -0.23934127       3.93833882      -0.52526023      -2.49219569
I        3.17847951      13.46191581       6.32297069       0.04909574      -0.09878318       0.18545978       2.09331246       1.58476064       0.25719843
I       10.55544759      13.05414685       6.87803517      -0.10413923       0.08888991      -0.21598530      -1.23722383      -0.78168209       4.08351915
I        6.79113196       9.98156794       6.96130845      -0.15882647      -0.25849365       0.02093346      -0.41974194      -0.57788901      -4.88134454
I        7.00138448      16.51380539       6.81936887      -0.11209729       0.21137124      -0.04972858      -2.19780704      -1.38116900      -0.17074466
I        9.55429085      12.64620016       0.11121764      -0.19765612       0.08951751       0.12783298       0.78276507       0.57145614       0.03490308
I        3.33965142      13.20674129      13.47263263       0.11024342       0.09478464       0.09181831       0.15924734      -3.22174800      -3.75888707
I        7.48810698      16.58920607      13.09839806      -0.04631773       0.09304059       0.09274948       0.67553344       1.19894979       0.13604329
I        6.66384387       9.50523236      -0.19804563      -0.11688230       0.02858086       0.20363234       0.58146572       1.38499798       0.23409532
I       13.57439739      12.74183728      10.10644536       0.06477900       0.26970643      -0.15477057      -0.35152350       0.62505152       4.21595585
I        0.54246952      13.27173790       3.18609867      -0.02588450       0.02006869      -0.05554882      -0.17655308      -2.34030979      -0.45455592
I        6.97181169      13.32279883       3.86853784       0.03550769      -0.08870812      -0.22500306       1.23747226      -0.00794043       0.60483001
I        7.29820002      13.78813883      10.03750541      -0.14234045      -0.04392126       0.16021734       1.57956381      -0.22519038      -1.16485990
N       10.67702648      10.56294353      15.66822371       0.75196366       1.35730998      -0.10797340      -0.45487618       0.04658472       0.74443372
C        9.25792327      10.98512364      15.28184725       0.67212244      -1.71283671       3.15519021       0.63789674      -0.87469537       0.10348295
H        8.75257020      10.07228534      15.01896600      -0.38186314      -0.33405810      -0.72976252      -0.16910952       0.06725222       0.03675995
H        9.11796827      11.83772716      14.69814202       0.38745568       1.19961040      -1.68176687       0.17082155      -0.15861800      -0.07936589
H        8.83618470      11.26329178      16.25042814      -0.21786945       0.07821528       0.22778112       0.15595965       0.08627809       0.10582315
C       10.82605602       9.97286743      17.08601954      -2.14832003      -0.70518333      -1.08787126      -0.22331783      -0.27198224       0.09367592
H       10.42942877      10.73251208      17.78693459       0.23054809      -0.38312769      -0.09947167       0.35543851       0.11821609      -0.06266529
H       11.85613521       9.69829253      17.28473968       0.31245590      -0.00239297       0.01230297       0.10051958       0.23405098      -0.27740836
H       10.13866365       9.04716637      17.06474758       0.98223779       1.10875728       0.38016258      -0.29572204      -0.13399660       0.24870623
H       11.31055984      11.41462836      15.63776868      -0.50986104      -0.63242023      -0.22167831      -0.13096673       0.22586429       0.08287162
H       11.04833543       9.91724855      14.94664916       0.06276416      -0.02608445       0.18441408       0.10237759      -0.03254728       0.32641219
N        3.40781190      16.31971300      24.55882916       0.69257418       1.07573782       2.41040420      -1.27495775       0.21431843       0.05236416
C        2.34693892      15.74606654      23.76474866       0.78019981       0.55589007      -2.44511372       0.24028646      -0.24831420       0.36230109
H        1.56164759      15.62423881      24.45387313      -1.38574058      -0.94718824       0.67890929       0.01943279       0.17706177      -0.15443009
H        2.74149412      14.80983201      23.21304937      -0.84137891       1.39843425       0.67702815      -0.27964267       0.04902521       0.20618267
H        2.02946630      16.61428415      23.11126203       0.16910807      -1.21066785      -0.07047035      -0.13446615      -0.20503776       0.01083255
C        4.55858394      16.88669276      23.84327659      -0.72625205       2.23707037      -0.49038191      -1.10199924      -0.06146460      -0.35592982
H        4.20112996      17.73221131      23.13687058       0.37063059      -1.26945759       0.91395835       0.09402181      -0.03742766      -0.47611561
H        5.01141780      16.11405119      23.28730973       0.62522267      -1.07307338      -0.94706315       0.12519396       0.21227848      -0.08102291
H        5.29871915      17.32911998      24.52197834      -0.21343539      -0.14653345       0.18189532       0.03129268      -0.03403261      -0.05703748
H        3.69334539      15.62129477      25.29359952       0.36578819      -0.36182728      -0.40775054      -0.18857252      -0.28389347       0.13575101
H        2.98371806      17.02725606      25.23379530       0.25328335      -0.04309362      -0.71675181      -0.08187273      -0.01186632       0.17143839
N        4.58745121       9.25859481      23.99991915      -0.23913975       0.18293230      -1.62038003       0.65558153       0.15607629       0.38764145
C        3.82695217       9.67684468      22.72240053       1.40320587      -1.02049849      -0.22108966       0.03224643      -0.62527262      -1.25878000
H        4.58585523      10.03145530      21.94904149      -0.88757890      -0.50362436       0.85070090       0.39271784       0.11071748       0.33969934
H        3.13089556      10.47138964      22.95527407      -0.21695819       0.39656621       0.28306611       0.08818932       0.16307338      -0.08159493
H        3.27623100       8.76788329      22.38304644       0.31395275       0.56325745      -0.00805616      -0.08679237      -0.11587032       0.19579543
C        3.65457648       8.86468062      25.07829993       0.15714073       0.64286338      -0.06194615      -0.33096852      -1.02033579      -0.39747776
H        3.18411264       9.77583717      25.50469648       0.14689913      -0.44448434      -0.12082507      -0.14350536       0.04690081       0.11625338
H        4.19863924       8.28731836      25.81417792       0.18228617      -0.01514795       0.50592008       0.04648899      -0.01189663      -0.06786197
H        2.92090062       8.21525619      24.61535710      -0.50873269      -0.12791839      -0.07309518       0.13919182       0.09406775      -0.12695114
H        5.21085225      10.05759684      24.19955071       0.03052464       0.35951728       0.67807437       0.39101054      -0.33574615      -0.00654109
H        5.25409034       8.44745206      23.81123364      -0.44716099       0.21079384      -0.13616564      -0.16742548       0.06505678       0.13750288
N       10.27321590      15.11146668      16.77547952      -0.28694292      -1.01953359      -0.69779631      -0.83989365      -0.01175052       0.37665069
C       10.41484506      16.44468996      16.17816965      -1.17470828       1.84425502       1.04714851       0.01219742      -0.52697006      -0.18683951
H       11.47304581      16.70897120      16.25844838       0.15758862       0.00058304      -0.56952867       0.12107029      -0.14283072      -0.02078678
H        9.89600117      17.25006857      16.82322968       0.36956402      -1.26671499      -0.71290361      -0.09151588      -0.21727491       0.04707584
H        9.97449633      16.48113498      15.17087254       0.34967197      -0.05200422       0.13612499      -0.07699462       0.14116096       0.21701656
C       10.85062473      15.06332134      18.15614400      -1.98321801      -0.57142570      -0.17040694      -0.55292121       0.30383669      -0.51163678
H       11.77813391      15.55281545      18.13566543       1.45918932       0.88845185      -0.03335174       0.18676538       0.07710101      -0.20082532
H       10.99424840      14.00168971      18.27588054       0.13802067      -0.53928005       0.91467852       0.02050480      -0.17909761       0.23469886
H       10.17525628      15.53569659      18.95757852       0.60444546      -0.64032078      -1.27846034      -0.09747521      -0.01751403      -0.13658896
H       10.72947406      14.43544644      16.05773765       0.29102054       0.54735693       0.87832760      -0.06325021      -0.21403584      -0.18245239
H        9.30682229      14.65808413      16.75570491      -0.07898694       0.94581158       0.28077716      -0.32673012      -0.14102049       0.09535871
Pb       0.48510105      13.40499588      20.17740307       0.01385006       0.14029718      -0.05758674       1.42812677       1.48958315       0.17769715
Pb       7.02814538      13.45029444      19.97830739       0.03956925      -0.19917218       0.17527640      -5.49587696       2.87996758      -1.76624638
Pb       0.09483043      13.53338603      13.17860708      -0.03982257       0.09681038      -0.07554291      -1.32469598       1.37462034       0.85610954
Pb       6.45082975      13.38362254      13.18917575      -0.03928201      -0.07039159      -0.02641490       1.15621585      -0.73248697      -0.70978350
I        3.90347265      13.83599977      20.31087633      -0.26272399      -0.06706163       0.03085962       1.14643978       3.61392838       1.46729245
I       10.06022149      12.83256180      20.89543236       0.05998883      -0.11367479      -0.06625485      -2.52400372      -1.25597227       1.33417701
I        6.95911614      10.02582375      19.67330161       0.11807938       0.03680280       0.27372588      -3.51224860      -0.28806944       0.03636170
I        7.48953206      16.36932245      21.13707383       0.06700846      -0.01817102      -0.13745963       0.38938373      -2.53909168      -1.14143656
I       11.31711004      13.81025557      13.60849113      -0.00132123       0.00967874       0.09394360       3.42961411      -1.16914489       1.39022246
I        3.28376604      13.48457086      26.39174832       0.58121199      -0.25436434       0.28220832       3.19868216       1.53019205       1.01455691
I        7.71972227      16.47635129      27.47972665      -0.25144962      -0.04833124      -0.16497913      -2.55083139      -1.25257619      -2.77655454
I        6.30627634      10.20649657      12.58123583       0.08733736       0.03818182       0.28585913       1.65288684      -1.44007251       0.09275999
I       14.17127401      13.60565335      23.46797844      -0.00784055      -0.09183941      -0.13767541      -1.45214543       0.64029050       0.68766990
I        0.52837575      13.50127401      17.10605089      -0.05796146       0.09618727      -0.00375938       0.61414347      -0.45906018      -3.49782811
I        6.97431266      13.59836138      16.89233492       0.07443404      -0.10829242      -0.23952036      -0.17632161       1.12049391       0.71532491
I        6.40244130      12.49732483      24.20514929       0.03414495       0.18864924       0.24962863       1.48956395      -2.48772295       0.38842030
N       16.98329666      17.75786087       3.88314912       0.16006264       0.81715818      -0.68185676       0.80633598       0.25880555       0.63377276
C       15.80545160      16.87017747       3.84586311       0.87271311      -0.74236807      -0.06818716      -1.24875191       0.54954092       0.33293740
H       15.90416026      16.26900799       4.75267059      -0.48591779      -0.08224666       0.18625489      -0.14328477       0.34293537       0.05280931
H       15.89641958      16.17205134       3.01394924      -0.00738423       0.08360509      -0.39811784      -0.27743339       0.15229816       0.37106884
H       14.90751330      17.47186761       3.78433128      -0.33754001       0.10664952       0.11169364      -0.25247659      -0.10332791       0.08425519
C       18.30480007      17.17264175       3.75459024       0.59997521      -2.12458932      -2.53637927      -0.27031533      -0.90713246      -0.44928616
H       18.55758976      16.89704404       2.64267732      -0.41059490       0.66127935       1.79625416      -0.12164223       0.11515111       0.10739489
H       18.29374428      16.26316898       4.31528270      -0.15730420      -1.02634764       0.41437835      -0.05703617      -0.01747981      -0.09419487
H       19.08161209      17.72390432       4.22779209       0.62771901       1.17254756       0.12015569       0.09020480      -0.13468939      -0.07355935
H       16.99953241      18.19134390       4.78532161      -0.25657053       0.84455645       1.42719155      -0.05094578       0.16214466       0.42332786
H       16.93367390      18.53645093       3.20334374      -0.40164073       0.19514795      -0.43253805      -0.25848751      -0.13483338      -0.39190454
N       10.58972637      23.30881074       9.19491263       0.01890506      -1.10426994       0.30402904       0.43670604       0.65412621      -0.24027667
C       11.66463081      23.59718383      10.14580236       1.68863993      -0.21432510       0.96506319      -0.12478165       0.28962774      -0.12986379
H       12.57721098      23.85705148       9.53937290      -0.66902291      -0.04307279       0.66878911      -0.06352821      -0.15080696      -0.16627083
H       11.89473056      22.65544389      10.72173643      -0.19299892       0.55577609      -0.53641591       0.28621530       0.29510220      -0.10097684
H       11.45480501      24.36351993      10.92412542      -0.33280914      -0.05971353      -0.72276605      -0.17623446       0.06666327      -0.34016535
C        9.29904943      22.83827592       9.81593353      -1.14697191       2.78060334      -0.85618034       0.43980420      -0.70033007      -0.01534557
H        9.44396342      22.11300672      10.58740003       0.34220011      -0.91139486       0.20265830       0.03151779       0.04744534       0.19545380
H        8.63146678      22.61891095       8.93623963       0.36029809      -0.35139737       1.01878027       0.01601880      -0.09030702       0.34539924
H        8.84445203      23.76734140      10.34289806       0.61324333      -1.23282756      -0.76181177      -0.01927263      -0.10143884       0.13636005
H       11.01496946      22.63369810       8.52959499      -0.39763256      -0.71905874       0.05061931       0.53988270       0.20488582       0.00091306
H       10.39207790      24.05206256       8.54059351      -0.34034136       1.35297848      -0.23390871       0.04199517       0.11003644      -0.11736847
N        9.15594436      16.88194283       9.61058145       1.19367897       0.09670282       2.27031885       1.35586004       0.77806796      -0.82149319
C        9.56041589      18.32067227       9.99710162      -1.13369943       0.04098684       1.59187702       0.11941222       0.25383423      -0.49978135
H        8.86034058      18.74028756      10.76058435      -0.08077807      -0.49632450      -0.57300102       0.03625237      -0.06300580      -0.26148800
H        9.58288787      19.03910615       9.19562284      -0.14628063      -0.13035873      -1.05968127       0.24123702      -0.13096761       0.00964468
H       10.52300959      18.44436204      10.51741288       0.22592933      -0.96049204      -0.27597975      -0.09282650      -0.07931104       0.23973005
C       10.39732311      16.01169113       9.39206745      -0.59598579       1.12952683      -1.12560957      -0.05243585       0.00602684       0.07519760
H       11.09116136      16.58799736       8.74147831      -0.22287416      -0.06411528       0.49697169      -0.18439560       0.20141278      -0.06915097
H        9.94692146      15.26429121       8.72272495       0.68982972      -0.82028926       0.64081022       0.07333383      -0.02892943       0.11770698
H       10.88093355      15.77288239      10.36447404      -0.51766016      -0.26218493      -0.60273462       0.03472966      -0.14154367      -0.01900975
H        8.48050101      16.77261766       8.82967600       0.06078472       0.55236298      -0.77719047       0.30062913      -0.02617614       0.05039066
H        8.60452970      16.36217721      10.38370986       0.63128925       1.05235163      -0.42188322      -0.11587484      -0.24351687      -0.05507559
N       17.10145945      22.71763939       3.17839320       1.03747510      -0.14854952       1.31159694      -0.14249471       0.88286747       0.70514409
C       17.76283321      22.50448881       4.52041458      -0.50486932      -0.24547559      -0.19434201       0.22627394       1.07446886       0.41877958
H       17.91404514      21.44070575       4.56664771       0.27707635      -0.64094757       0.35088070       0.06026205      -0.15805205      -0.26690761
H       17.23958839      22.82790920       5.42597713      -0.66003271       0.20056196      -0.42013321       0.14851040       0.00905114       0.08497286
H       18.70985121      23.02431001       4.49639760       0.52792171       0.24423111      -0.18694555      -0.29164639      -0.00831289       0.33120604
C       17.02283969      24.11950617       2.84735909      -0.17945222       0.50810629      -0.28785184      -0.71965482       0.02856676      -0.71050519
H       16.45425417      24.21029350       1.95608640      -0.35483416       0.25059384      -1.19026160       0.07832914       0.17902022      -0.13002958
H       17.98823448      24.53098091       2.79167268       1.51655863       0.45180125      -0.47458828      -0.15446610       0.18535364      -0.11378299
H       16.50843995      24.71797396       3.57284752      -0.62501137      -0.04994848       0.96861810      -0.19590529       0.12091536       0.02290514
H       16.12824264      22.38704117       3.10775651      -0.33405348      -0.95351305       0.35114053       0.13654066      -0.06767032      -0.17243540
H       17.72978372      22.13984253       2.57455913      -0.71040713       0.40845505      -0.46777126       0.26718511      -0.14616488      -0.20104982
Pb       6.78056904      20.12963605       6.50281932      -0.10643882       0.18734172       0.07580211      -4.54532793      -3.44488119       1.36805260
Pb      13.77592620      20.11849916       6.93665648       0.01385279       0.07845115      -0.03113983       0.48800339       0.13261566      -3.37413750
Pb       6.66082229      19.96420235      -0.34223296      -0.04958044       0.04872760       0.20253649      -2.33580501      -2.53709410       1.48675156
Pb      14.14691293      19.75284781       0.26710731       0.11890419       0.10541924      -0.04171895       0.25245352       1.15910131       0.24948042
I       10.71511742      20.74534817       6.45934969       0.13057565      -0.03588247       0.11566717       1.99989312      -0.35745240       1.27584804
I       17.49673128      19.43571237       7.16719390      -0.07694117       0.08015610       0.01255713      -1.10769175      -1.10813965       0.57025465
I       13.51272328      16.89254437       6.58518194      -0.10660694      -0.08067731       0.25046746       0.34698726       0.60879511       1.40584691
I       14.44812233      23.45061515       7.32482231       0.00156227      -0.08263265       0.00125672      -0.27791848      -0.42045410      -2.80264284
I       17.44240491      19.58144084       0.86957302       0.21657064       0.22615978      -0.05197269       1.71954531      -0.50447925       2.22693847
I       10.36782764      20.89895190      13.58749107      -0.08024395      -0.28112484      -0.17234696      -3.36422864       0.26261487      -0.29177368
I       13.46379337      23.74223729      14.14970894       0.17013736      -0.22186424      -0.04723347       0.41965478       2.72629426       1.78950032
I       13.33088625      16.67383263      -0.05368694      -0.01381114       0.11854921      -0.14768368      -0.47317812       0.89727716       2.03227216
I       21.03863339      20.11209715      10.17388437      -0.13654881       0.06076103       0.22753067      -1.03013293      -1.63341297      -0.48609432
I        6.90241560      20.23529694       3.47734328      -0.10945547      -0.19095173      -0.00533728       1.41456391       2.21033017      -0.99240960
I       14.56895498      20.53640543       3.77446686      -0.33113527      -0.07860234       0.09719671       0.63018969       0.17771090       1.17777546
I       13.61882357      19.95022368      10.43096994       0.11713060      -0.02508185       0.04680352       0.65049764      -0.23551432      -0.30242603
N       18.05027955      17.42699941      16.76268272       0.72701810       0.06331868       1.29748791       0.74674765       0.30711755       0.25862709
C       16.98220314      17.95225554      17.66965242      -0.14403682      -1.90204644       0.22198672      -0.55785189      -0.29934066       0.29653852
H       15.99470033      17.65118733      17.31500625      -0.06310306       0.15085131      -0.49828715       0.17850576      -0.00995721      -0.03725589
H       17.14427915      19.00035009      17.66693615      -0.21728945       1.22961305       0.30413555      -0.02043037       0.08215192       0.25903970
H       17.03842174      17.51053905      18.68573728       0.60280181       0.25025629      -0.37826963      -0.17452931      -0.14735752       0.22858031
C       18.30063642      15.94186267      16.71781913      -1.65238718       0.79471610       1.93699426       1.22724396      -0.06423246      -0.06984046
H       17.34408274      15.60552423      16.27348232       0.75324473      -0.71160142      -0.07623718       0.03126514      -0.11515397       0.11734208
H       18.35666063      15.60668370      17.80412614       0.13743934       0.13799793      -1.25626633       0.15118135       0.15962337      -0.01865827
H       19.22104295      15.82983072      16.16718802       0.18738145      -0.57774089      -0.35716629      -0.25590278       0.05114059      -0.19682247