800
Lattice="26.60327761192486 -0.02075411879722373 -0.0976601809444181 -0.012751533234206051 26.634947357323373 -0.06617213182443085 -0.13539229280832837 -0.09872721627272163 26.614533621786123" Properties=species:S:1:pos:R:3:forces:R:3:momenta:R:3 energy=-3426.993408203125 stress="0.002019362524151802 -8.441403042525053e-05 6.097683944972231e-05 -8.441403042525053e-05 0.0012301913229748605 0.00029520911630243063 6.097683944972231e-05 0.00029520911630243063 0.0011292025446891785" pbc="T T T"
N       11.20496950       9.60699084       3.84590191       0.49521329      -1.42596881       1.71393666       0.36667980       0.17704177      -0.07667577
C       11.75381556      10.54952757       2.84537133      -1.41824790      -1.88327852      -1.37062326      -0.17777461      -0.49466951       0.45378045
H       12.78658900      10.32776621       2.72541307       1.21579242      -0.15905339      -0.09782630       0.06744929       0.11017120      -0.09112141
H       11.63010517      11.56287175       3.17628501      -0.42817024       0.75305556      -0.02843097       0.17478145       0.07071935       0.04219594
H       11.24056148      10.19239589       1.89680135       0.39668363       1.21876556       0.53976849       0.02459271      -0.21936440      -0.11776374
C        9.80085779       9.90074248       4.29836681       0.82184638      -0.27600956      -0.11344248       0.31035617       0.50793468      -0.49409313
H        9.14620437       9.70824452       3.44634146      -0.23133273       0.27981087      -0.05907255       0.13813095      -0.28470228       0.11814592
H        9.85804850      10.91920254       4.63273200      -0.53978999       0.77866023       0.06373712      -0.05517879      -0.16095434       0.01297053
H        9.52313961       9.25835233       5.13918633       0.12130446      -0.20170762      -0.05907182      -0.11323843      -0.00305757       0.05167440
H       11.90400682       9.57534865       4.68507939      -0.98680262       0.13851116      -0.68365730       0.03835472      -0.22534665       0.10226870
H       11.17889350       8.60539699       3.50292607       0.50341699       0.68182190      -0.10340595      -0.14520094      -0.00366425       0.02832102
N        2.09072820      15.91733791      10.34252085       1.41478963       0.63733648      -1.11780160      -0.08394308      -0.88660832       0.18422631
C        2.46765592      17.12328670       9.52183744       1.65001602      -0.21304374       1.92329259       0.15994313      -0.07221646       0.09624791
H        3.04864346      17.73256876      10.26499556      -0.61877382       0.06218199      -0.65801341       0.04021468      -0.33552062       0.32126028
H        1.55468311      17.58925536       9.23305542      -0.60589257       0.60252246      -0.57197132       0.11465473       0.12774651       0.06753312
H        3.20343036      16.88535960       8.71815856      -0.78818815      -0.22992446       0.21499902      -0.15701960       0.17177941       0.16487507
C        3.31100570      15.21335882      10.80603927       0.14203607       0.00203177       0.16337030      -0.46264909       0.16021006       0.64759830
H        3.75503398      14.63605394       9.96761316      -0.03360458       0.54144528      -0.04566263      -0.08452838      -0.03105927      -0.01235287
H        2.97114422      14.41283067      11.49963982       0.43123447       0.71542026       0.22628325       0.02139891       0.15103339       0.05384353
H        4.05817955      16.00618248      11.18664234      -1.08981983      -1.35073567      -0.15285056      -0.05682443      -0.03551035      -0.08622902
H        1.55856121      15.33264068       9.69075287      -0.55739785      -0.81497725       0.00916123      -0.07794930       0.10097525       0.25316378
H        1.46537955      16.19847599      11.17602503       0.20200830       0.02783120      -0.23580604       0.40686977       0.18995099      -0.08358475
N        2.67918920      10.04413214       8.70549015       0.67210917      -1.19305917      -1.89080864      -0.75532559       0.23624299      -0.26105359
C        1.91263150       9.99300411       9.95180829       1.21526610       0.62404834       1.08732579       0.12573666       0.90980046       1.51104483
H        2.55467718      10.45457941      10.77498638      -0.74723720      -0.61093170      -0.87719470       0.07300353      -0.06212656      -0.18731186
H        1.62751521       8.98236949      10.18993401      -0.04774773      -0.63618567       0.16087481       0.13913563      -0.16220527       0.05563748
H        1.05628814      10.61176635       9.80614832      -0.88116416       0.46428344       0.06208098       0.18213458       0.04409856       0.01012226
C        4.11308912       9.57400155       8.83852657      -1.16443270       1.20064340       2.64465133       0.01531373       0.15222767      -0.75177423
H        4.16916059       8.52426754       9.00021173      -0.27675390      -1.18473742      -0.19943163      -0.08949380      -0.30996938       0.19292339
H        4.44902498      10.02103437       9.81858357       0.10525648      -0.09127686      -1.06425817      -0.13282540       0.11978219       0.12654701
H        4.64556407       9.90530834       7.99533779       0.89281506       0.45530808      -1.04953835      -0.09978759       0.04660258       0.13954963
H        2.68576702      11.00936958       8.38207170       0.04770864       0.66252493      -0.04476960      -0.12069901       0.16184789      -0.10589223
H        2.21977996       9.55546340       7.83938348       0.16327994       0.42449809       1.33507441       0.38263690       0.35265505       0.03256382
N       10.83493276      17.23701210       3.01147612      -0.30618088      -1.36709948       0.77926978      -0.87574369       0.67806373       0.31229682
C        9.89617421      17.17703945       4.18318033       0.48901343       1.40681749       1.66601931      -0.19900447      -0.05885491       0.76133686
H       10.38117795      17.68924483       5.11911708      -0.53216586      -1.28634570      -1.47442263      -0.09906703       0.02733223      -0.08426526
H        9.52416753      16.16775499       4.36706048       0.37229270      -0.24473207       0.04382512      -0.07178010      -0.11553817      -0.28035184
H        9.02001403      17.80025560       4.00944336      -0.11848888       0.24439556      -0.54770701      -0.08085545       0.13206190      -0.23352793
C       10.15069185      17.07949814       1.73179058      -0.58796963       1.26404452      -1.60388107       0.01130182       0.33626404      -0.11822107
H        9.56691737      16.18021641       1.72459621      -0.23910593      -0.73175184      -0.02891482      -0.34290513      -0.15188844      -0.00692549
H       10.75338090      17.20444666       0.77654324      -0.02219676      -0.41414689       1.31663560       0.32149293      -0.30651578       0.01967517
H        9.47518803      17.95173114       1.70840162      -0.26909874      -0.26278450      -0.22887022       0.09155638      -0.22224096      -0.28192010
H       11.56776386      16.50695009       3.17253535       0.05506980       0.41833731      -0.26644542       0.20139812      -0.14843289       0.04323461
H       11.24171942      18.16565807       2.97836219       1.04149513       0.80002252       0.29701739       0.19098287       0.07102326      -0.17755575
Pb      -0.46380041      13.71999377       6.15758508       0.06932866       0.04819947       0.24943465      -0.74821017      -0.69239690      -4.90930265
Pb       6.32378781      13.20844829       6.14115146      -0.09783713       0.13358897       0.11290866      -1.45934256      -2.75560660       0.61526188
Pb       0.11122238      13.64521139      -0.13878106       0.02129911       0.08770921      -0.00677387       0.53689162       1.51874515      -1.26031406
Pb       6.71061390      13.75823692      -0.24581911      -0.08930803      -0.80798427       0.14868407      -1.88918314       4.48830202      -0.57825376
I        2.87317609      13.98984891       6.19472912       0.15579095      -0.05159461      -0.02884738       3.19328533      -2.93256307       4.98801621
I        9.74659641      13.67805158       6.02674796      -0.08617554      -0.05377368       0.12845833       0.24156745       1.15535608       0.87855598
I        6.18746672      10.18565417       5.73292598       0.05593117       0.09732667      -0.06646669      -0.16991227      -1.44171531       0.36943591
I        6.22272940      16.99085691       7.33047331       0.07419701      -0.17979355      -0.10160993       0.83692306       0.57715590      -2.35984486
I        9.84883989      13.06323730      -0.04636836       0.08845619       0.16917318      -0.08954507      -4.26888568       0.74346263      -1.44005915
I        2.82020998      13.47761461      14.50481190       0.14397708      -0.14266695      -0.16503861      -1.06933517       0.59357335      -0.97721677
I        6.29234359      16.78500596      13.37671772       0.15158513      -0.20824736      -0.05504211      -0.25049743       1.25684856      -0.62614179
I        6.91842350      10.26279942       0.40522472      -0.17622362      -0.20541694       0.05508634      -3.46858766       1.44991393       1.54538514
I       12.66603706      13.65716709       9.81418349      -0.02373794      -0.21247799       0.02179450       2.95041734       0.17880677       0.13411150
I       -0.48010665      13.77418647       3.05586314      -0.02684502       0.04770969      -0.09049347       2.80751757       1.28166551      -1.97123660
I        6.14379782      14.33754045       3.34412485       0.06003463      -0.00986614      -0.09754545       1.80540537       1.20138169      -1.58373806
I        6.19981003      13.17658627       9.91754776       0.13154418      -0.10336196      -0.18682819      -3.33443281       3.50559695      -1.59922661
N        9.77355752      10.40682594      17.05606787      -1.31466998       1.84727787      -0.15659469       0.11420404      -0.26973801      -1.23755937
C       10.83438502       9.46677941      17.31516959       0.55010604      -1.94179347       0.94503805       0.39894171      -0.74905663       0.83143393
H       11.30233614       9.66299938      18.29470172      -0.12490997      -0.04758632      -0.22085105      -0.10456851       0.00192460       0.13198777
H       11.58919079       9.51411362      16.53521556       0.26752097       0.33376405      -0.32334485       0.05145995      -0.11169753       0.10102723
H       10.45225340       8.40813086      17.26864279      -0.00340959       0.77949348       0.27029079       0.05519601       0.09414208       0.01369817
C        9.02753729      10.08283031      15.79915219       0.67649915      -0.25536352       0.62685626      -0.96520555       0.48301262      -2.33948068
H        8.24471289       9.40169337      16.02121506      -0.76878329      -0.91654003       0.36907779       0.02263784       0.05634818      -0.04413403
H        9.73424998       9.61740053      15.13634328       0.36663695      -0.15309408      -0.47424993       0.09856062       0.01725383      -0.14999375
H        8.59806811      10.95234884      15.37283998      -0.32983583       1.04627068      -0.46893365      -0.19290042       0.11949966      -0.07787976
H       10.19191957      11.33731720      16.89897949       0.25110845       0.05790931       0.03425808      -0.21665154      -0.11478681       0.11671714
H        9.09339366      10.61804970      17.85833403       0.52406250      -0.74392877      -0.46239272      -0.01275292       0.01745221       0.11037267
N        4.11141866      16.09918298      22.44482867       1.39422649      -0.20705314       2.93169968       0.47593932       0.14024949       1.23032301
C        3.32147784      16.89348251      21.56031251      -1.03465196      -0.83614697      -2.22842383       0.04031246      -0.66149708       0.98500193
H        2.60608841      16.15323405      21.15716925       0.09916735       0.48415508      -0.61559198      -0.00186233       0.05812167       0.00306018
H        3.88661738      17.41220924      20.77031379       0.01914070      -0.25383668       0.25745871      -0.01236783       0.01266818       0.16799973
H        2.69247668      17.55022664      22.09989528      -0.38792254       1.05021303       0.91510992      -0.24097408       0.13086873      -0.33920183
C        3.26083767      15.65506165      23.64650500       0.62531059      -0.19448977      -0.30745774       1.17808944       0.35820311      -0.03020245
H        3.66983997      14.63176581      23.83714490      -0.97644629       0.52724325       0.30279940       0.27285603       0.08572638       0.04826504
H        2.19101263      15.80882717      23.43074446       0.28585439      -0.78997025      -0.47657646      -0.03032078       0.05147249      -0.10233926
H        3.40524790      16.32115470      24.49803555       0.55459764       0.09976959       0.15100586      -0.33608665       0.21523598      -0.03693300
H        4.91565883      16.63416353      22.85955311      -0.36884470      -0.04194727      -0.37771606       0.35731931       0.17577582       0.23740572
H        4.57946096      15.24024690      22.07427650      -0.30710440       0.27710908      -0.48783011      -0.01849852      -0.04133406       0.07226123
N        2.93733970      11.03202833      23.01408541       0.59032326      -0.40776189       0.40718667      -0.38353632      -0.71807723      -0.73054021
C        3.74956939       9.82898947      22.51238655      -2.12103220       1.25020952       0.08613002      -0.18096865      -0.15963322       0.36776591
H        4.03608658       9.40827733      23.41298527       1.40974082      -1.12083355       1.77776075       0.02390120      -0.10375247       0.07786385
H        4.54523187      10.15948179      21.86221857       0.08022138      -0.14885567      -0.38722863       0.33605495       0.00382651       0.18441797
H        2.95553915       9.13998742      22.17881550       0.57565056       0.10253179      -0.79171859      -0.15363389       0.13895515       0.06053273
C        1.86890025      10.59102120      24.01124298      -0.31964300       1.14698551      -2.31385785       0.65741945      -0.63067829       0.11454325
H        1.18041889       9.91851299      23.44702864       0.36011407       0.22851554       0.50152914      -0.06542203      -0.26493071       0.29217251
H        1.36845471      11.54692489      24.23898411      -0.17272134      -0.48180375       0.50720422      -0.04121462       0.32058295      -0.01157490
H        2.36490049      10.09496283      24.81914196       0.23170127      -0.31351072       0.71882092      -0.03149863       0.25899300      -0.11823288
H        2.56832475      11.47219041      22.16197757      -0.47150839       0.31846935      -0.22995195       0.12569167       0.20101977       0.21658209
H        3.52936784      11.77416757      23.46222161       0.07948926      -0.59859142      -0.31539835       0.06010431       0.05314578       0.06717559
N        8.63691773      16.65780673      16.43319580       1.69742190       1.47858096       0.03106955       0.03270008      -0.11424699       0.14431955
C        9.17629872      15.70720833      17.42582523      -0.62053442      -1.07839057       0.00819981      -0.35236819       0.90875061      -0.63672099
H        9.82182406      15.04021850      16.83355593      -0.26072645      -0.31258859       0.35014039      -0.22768011       0.03957688       0.21278140
H        8.30126223      15.21095329      17.93812580       0.79137263       0.15959949      -0.52458585       0.25117580      -0.00724689      -0.06729453
H        9.80859934      16.15554963      18.18864723       0.05127175       0.64250435       0.02494079       0.02224269      -0.07446356      -0.06682323
C        9.73278960      17.40218754      15.63213754      -1.22822106      -1.95252574      -1.33863162       0.33263238       0.07824394      -0.91452356
H        9.91325141      18.35579674      16.05340604      -0.02415192       1.23714135       0.35632152       0.33695023       0.02438598       0.22451513
H        9.43441227      17.39378358      14.51745278       0.50913646       0.23943051       1.65281494      -0.14252553       0.23629493      -0.15167952
H       10.58868540      16.78390883      15.81666308       0.75210977      -0.34309454      -0.32344846      -0.05858507       0.19387559       0.19186661
H        8.11067125      17.39668617      16.89029479      -0.82455928       0.36482855       0.34399656      -0.10727451       0.30764954      -0.16191934
H        8.04149035      16.19285539      15.76983859      -0.79926274      -0.48580525      -0.56910584      -0.24011376       0.12819657       0.24316235
Pb      -0.28989041      13.42979504      19.78956668      -0.06022746      -0.49016635       0.14412600      -1.83673463       0.68046160      -1.20590660
Pb       6.66992307      13.43131444      19.54300436      -0.30221353      -0.15307909      -0.02775267       1.98742173      -1.10397914       0.66899435
Pb      -0.08998783      12.94572709      13.66744986       0.03345348      -0.06330602       0.01100466      -0.63472550      -0.70828317      -4.09488056
Pb       6.13068107      13.46622735      13.14684864       0.14628873      -0.23400497      -0.00858042      -3.66386812       2.54282648       1.37149365
I        3.60349892      12.66327812      19.98445435       0.08066502       0.19072718      -0.17783421       0.62980730      -0.36909083      -0.16700206
I       10.31931487      13.00347242      20.15609480      -0.04099725       0.14244319      -0.14029585       1.34889256       1.11064078       2.99860586
I        6.84460247       9.84387685      19.37339544       0.08652310       0.05486181       0.11783765       2.02234623       0.73365256       3.06738139
I        5.69422467      16.52903682      18.89455067       0.37440577      -0.18452583       0.22232016       0.15609682      -0.90319360      -3.70085263
I        9.30016176      13.07676973      13.32506104       0.02068951       0.15041909      -0.13914851       0.32109731       0.29335829      -0.31063060
I        3.16529600      13.60872994      26.89107352      -0.07250761      -0.09053269       0.01492285      -1.20097664      -2.38312454       0.27936082
I        6.36709284      16.46301583      25.72605131       0.14662026       0.66778504      -0.00135674       0.13426446       0.12851620      -2.76367887
I        6.06354285      10.03109713      13.17874726      -0.18659373      -0.09526167       0.01172798       0.13617631      -0.54368822       2.20481585
I       13.87312287      13.52116020      23.13842164      -0.02148458      -0.11700783      -0.12582424      -4.13350356      -2.12121687      -2.34192746
I       -0.40186994      12.62081575      16.66189791      -0.09966684       0.06061977       0.16546030       0.52361473      -2.02293180       1.08480577
I        6.40547000      12.84522409      16.20629834      -0.01489997       0.08423323       0.50359203      -0.24997707      -0.83253889       3.24213677
I        6.22462426      13.14705713      23.19287008       0.07044671       0.01426503      -0.02463824      -1.60811511      -1.78248074       0.27738459
Cs      16.42308947      16.56199951       2.91842807       0.05881300      -0.01218590      -0.00069056      -1.25434639       3.95310473      -0.94989653
N        9.71414219      23.71514228      11.10340410       0.03714952      -1.38784019      -1.97699128       0.99006928       0.27350621      -0.17682195
C        9.31278805      22.78453713       9.92183827       0.81060312       0.82804580       0.46116979      -0.10264582      -0.30279037      -0.17379509
H        9.86094802      23.07691930       9.00265532       0.29428207      -0.34666947       0.64056162       0.04783395      -0.28292315      -0.20165347
H        8.27597599      22.90022502       9.66065584      -0.83368578       0.43767680       0.26663985      -0.06443346      -0.04610054       0.15019343
H        9.42005036      21.76317873      10.26806523       0.43886032      -0.31960493      -0.08718750      -0.10843603      -0.01337900      -0.13644397
C        9.85821427      25.11541057      10.63092219       1.37073159      -0.77369355       1.41204838       0.89700098       0.43438543       0.07850003
H        8.91484729      25.38488669      10.23552428      -0.97440998       0.67909075      -0.46728296      -0.12027152       0.19408827      -0.06213846
H       10.67730528      25.14750364       9.88608340      -0.34469133       0.05441526       0.17479608      -0.06284250       0.16687064      -0.01355198
H       10.15532265      25.61376673      11.56856893      -0.18442757       0.64737941      -0.58807499       0.35511844       0.08841780       0.23987865
H       10.60822563      23.41733202      11.55553993      -0.09114939      -0.15800091      -0.18821162       0.18186470       0.18802512      -0.10739752
H        8.98292202      23.59991130      11.82488797      -0.39906571       0.19480757       0.36155641       0.18679628      -0.00639786      -0.04070975
N        9.59934882      16.05001745       9.40674291       1.95212576      -0.33670151       1.23515303       0.37270528      -0.65478909       0.56706884
C       10.84111749      16.96898094       9.36327456      -0.40628384       0.40849820      -0.43217763       0.34016318      -0.88659437       0.69307168
H       10.47018195      18.04684675       9.36229581       0.40823332      -1.18588086       0.32046938       0.08469643       0.20923961       0.02609029
H       11.35564858      16.80786756       8.39830245      -0.05989101      -0.07237856       0.25263158      -0.17320464      -0.27998956       0.07959881
H       11.57350374      16.74018112      10.21097120      -1.14017864       0.23022114      -0.80786684      -0.18911662       0.25715143       0.01442992
C        9.02315534      16.14849054      10.76347146       1.98846202       0.24824249       0.60469157       0.00197166       0.43232330       0.65605625
H        9.72376443      15.74077154      11.54410519      -0.05292239       0.44693658      -0.77025750       0.08631387      -0.08377819      -0.03973428
H        8.18050495      15.55695336      10.89300082      -2.01779650      -0.93301389      -0.16950421       0.24415176      -0.06762356      -0.14103703
H        8.88292349      17.19833566      10.91389594      -0.44946774       0.70289038       0.46509686       0.11359477       0.28135037       0.01502214
H        9.87885669      15.07366238       9.25837614       0.44790995      -0.25811852      -0.08730417      -0.14299602       0.08733424       0.22014905
H        8.91622111      16.20208027       8.67961462      -0.70378875       0.75784605      -0.70097298       0.05313234      -0.11623677       0.31232802
N       16.15789866      22.69127517       3.71806883      -1.21235541      -0.49683664      -1.96933416       0.58961605       1.04256796       0.06585298
C       15.62288606      24.06663558       3.87836645      -0.35068557      -0.02989197       0.44065387      -0.13438014       0.66824603      -0.82020549
H       15.44545081      24.43065126       2.83967691       0.13875442       0.22323691       0.78580377      -0.27048070      -0.09515524      -0.01281471
H       16.36193370      24.61068911       4.47679434      -0.06638587       0.35697753      -0.33102910      -0.13295639       0.17289051      -0.16877641
H       14.66194779      24.00889231       4.44973925       0.59750272       0.15370848      -0.36944202      -0.04668093       0.15423645       0.13342393
C       17.12034677      22.57601618       2.54751232       1.12272158      -0.18991721       0.83275842      -0.62065765       0.64926230      -0.29768036
H       16.88811559      23.19240963       1.68164122      -0.72012996       0.13633930      -0.01223251      -0.28583443       0.07150164       0.31168807
H       17.17092982      21.51436511       2.28843540       0.08004035      -0.03213210      -0.15225703       0.10914686       0.20493397       0.01363030
H       18.14611847      22.91681324       2.88575767      -0.94457380      -0.31005788      -0.02790494      -0.11503404      -0.11813293      -0.06753691
H       15.27955414      22.10851563       3.58520806       1.06093045       0.02332610      -0.21240756      -0.23664031       0.06294736      -0.34732909
H       16.64061573      22.25811905       4.49361891       0.23946006       0.02621373       1.16535469       0.11899322      -0.08006349       0.07966048
Pb       6.57133532      19.83516343       6.35094017       0.07623360       0.17312487       0.25676784      -1.54012861       1.83647518       0.81239317
Pb      13.56684917      19.96399477       6.56015053      -0.15752381      -0.25263379       0.07646783      -1.95521534      -1.23939146      -0.28528703
Pb       6.90815806      19.74627195      -0.61061647      -0.13543996       0.30888488      -0.09550498       0.47927610       0.06599305      -2.59753567
Pb      13.75167627      20.27336829      -0.56113218      -0.42159803       0.05548717       0.16773925       1.74042198      -1.31422738       4.04545246
I        9.93710231      20.27959840       6.92026469      -0.07145845       0.00827715      -0.25999703       2.31032484       1.55954819      -1.85873949
I       16.78466135      20.05844996       6.61112707      -0.28418656       0.05739493      -0.19250597       0.37769604      -0.99407835       1.77688790
I       13.57965866      16.72697231       6.36617792       0.12833674       0.20407619       0.03528826       1.69424934      -2.25861207       0.38528296
I       12.91160645      23.98516172       6.90244045      -0.01245154      -0.52589604       0.05893108       1.85246161       4.40366246       1.38090038
I       16.68548313      19.86230351      -0.77329006       0.01017176      -0.04102301       0.08593086      -0.21979276      -1.37723287       2.40922079
I        9.82074193      20.18754521      13.02002030       0.16086658       0.01680470      -0.12783955       0.04040005       1.79065122       0.66743500
I       12.61846486      23.38221678      13.38534155       0.04407876       0.06727658      -0.01851499      -2.25284306      -2.04218194      -0.84354803
I       13.55484085      16.49041192      -0.66743152       0.24810665       0.36222173       0.34480356       2.47783011      -2.23458931       2.04872946
I       20.23332753      20.47221892       9.80205917       0.25638352      -0.04040073      -0.09706137       0.66470945       0.53385149       1.26921911
I        6.20594499      19.33207187       3.43089364      -0.02930722      -0.04459179      -0.15112178       0.94394598       2.99256217      -2.17288118
I       13.33391820      19.55780776       3.31802364       0.35035113       0.14012782      -0.01601673      -2.50907903      -0.00855400      -1.62910171
I       13.52060898      19.92329138       9.78182695       0.09317898       0.09574132       0.05883895      -2.94579879      -2.87771469      -1.82628752
N       16.72806640      16.99104729      15.69066989       0.06075837      -0.47013302      -0.92857080       0.52347163      -0.61607440      -0.57770592
C       17.88172502      16.61367768      16.55545476      -1.44706583       0.90002220       0.89730432       0.00403524      -0.73776160      -0.30771561
H       17.69287790      17.16178677      17.49268817       0.66769927       0.29775780      -0.12086070      -0.28547002      -0.03232504       0.02918816
H       18.78370363      16.88799165      16.01327629       0.31244302      -0.44721942       0.22447303       0.01821672      -0.15778347      -0.06370666
H       17.65085996      15.59779864      16.83652644       0.78244310      -0.84276505      -0.12437403      -0.18826204       0.04974918      -0.05526419
C       15.42168129      17.09696172      16.43699181       1.14442308      -0.83543637       0.34865370      -0.53513208       1.21670138       0.40072083
H       14.71697259      17.50546115      15.72987629      -0.77321158      -0.41474270      -0.17720084      -0.24570909      -0.29677812       0.31591637
H       15.48162540      17.75708914      17.29751697       0.42708069       0.49824328       0.09490390       0.20885409      -0.25847291       0.08282261
H       15.30923647      16.09047457      16.88993262      -0.77651038       0.29822607      -0.56793516       0.02226930       0.03056893       0.01564167
H       16.65657120      16.15650099      14.98253887      -0.17772107       1.65677759       0.41480165       0.13125294       0.07542083      -0.00529353
H       16.93685040      17.93256201      15.23109026      -0.29482685      -0.79752220      -0.13831115      -0.36985771      -0.19268969       0.19454502
N       10.83164824      22.91256890      22.36382290      -0.01994573      -0.87473533       0.06839144      -0.30992629       0.45163851      -0.69917435
C        9.44853056      22.59126975      22.56913699      -1.47757095      -1.26247936       1.49710320       0.09494116       0.43418903       0.39023856
H        9.00553164      21.98022362      21.77244418       0.13941532       0.35296107      -0.17294486       0.33659608       0.18660766       0.35607826
H        8.93157648      23.52718486      22.78594327      -0.35659002       0.05418392      -0.27894532      -0.00615681      -0.02654216       0.12296951
H        9.39113244      21.96204375      23.50149532       0.00542503       0.47404300      -0.52721667       0.10368086      -0.42667202      -0.03225844
C       11.33176035      23.85223127      23.29026499       2.55970752       2.93058900       1.84643443       1.01127741       0.16091352      -0.29987742
H       12.31636278      24.21034888      22.90367586      -0.43893881      -0.26616854       0.30937051       0.18372659       0.04411268       0.01672437
H       11.55767623      23.43388767      24.30269307      -0.38378494      -0.30267101      -0.61126957       0.15174452      -0.18076320      -0.06327968