480
Lattice="25.87534715028624 0.04416147604318247 0.07697108975799043 0.019555847375718218 25.768703060115122 -0.07036164735120982 0.09622551192973852 -0.12138582250482048 25.725635885741976" Properties=species:S:1:pos:R:3:forces:R:3:momenta:R:3 energy=-1744.1495361328123 stress="0.0012345931027084591 0.00013495178427547216 -1.3349854270927608e-06 0.00013495178427547216 0.0012922479072585702 -7.447621464962141e-05 -1.3349854270927608e-06 -7.447621464962141e-05 0.0004553157195914537" pbc="T T T"
Cs      10.35384357       9.26442779       2.98792724      -0.15070868       0.00420639       0.07827897       0.96334363      -0.95972165      -2.27472893
Cs       3.83463732      16.26534289      10.09693191      -0.11376188      -0.03217691      -0.04389967      -0.08535038       1.12427809       0.62484891
Cs       3.22976871       9.99353635       9.49534435       0.00612632      -0.01966481      -0.04922338      -2.95592618       0.67414018       0.12842231
Cs       9.40312830      15.58022774       3.28190573      -0.02103718       0.00237097       0.05128337       0.45103415      -0.49566703       0.87657925
Pb       0.47000610      13.03539409       6.49598596      -0.24490007      -0.12987176      -0.12406156      -1.21892528      -0.37010322      -0.81755756
Pb       6.65981660      12.81451128       6.81330467      -0.19543468       0.03658180      -0.35664746       2.96934010       4.28356428       3.77904896
Pb       0.03701679      13.06715165      -0.22687957       0.07961222      -0.20635803       0.22857742       0.77958021      -1.53727158      -4.01472585
Pb       6.51221685      12.83159139      -0.37183456      -0.13601875      -0.24137087       0.20115873      -2.55589892      -1.05294407      -1.29340208
I        3.34753770      13.75549022       7.19345948       0.19657777      -0.20560242       0.01976509       1.05764756       2.33054732      -1.79460481
I        9.74173856      12.23263687       5.78287818      -0.11076102      -0.01271282      -0.02126977      -1.66199386       0.92897868      -0.05798925
I        5.58976301       9.65805936       6.20135196       0.06925790       0.15972499       0.18282216       0.12566080      -1.79306802       2.32215409
I        7.18088335      16.02827865       7.05739145      -0.06564210      -0.14602103      -0.04846091       4.83169028       1.64170026      -0.07994544
I        9.95934635      12.38841292       0.75439739      -0.64544827      -0.04093915       0.08768359       0.71937656       3.10674218       0.29415804
I        3.31191544      13.66637619      13.12880934       0.00171088      -0.14589282      -0.20377635      -1.12631356      -0.91759358       1.27156064
I        7.08122567      15.82537102      12.48311538       0.01998465       0.17527898      -0.03733266      -1.68671710      -2.34159854      -0.75314516
I        6.69038457       9.55083522      -0.74572604      -0.05929910      -0.01991734       0.12060310       0.39397632       0.55286979       0.82106740
I       12.41333076      13.08302206       9.45077284       0.09719665      -0.00124439       0.19294117      -2.65795188      -0.79082072      -0.66391679
I        0.47070246      12.98623129       3.05248546       0.19623291       0.05232442       0.24201385      -0.14149768       0.31340328      -2.39109091
I        6.01338806      13.26025695       3.17165094       0.15753879       0.30508689       0.00646413       1.93106736      -1.04137095      -1.61185457
I        7.16624846      12.45377689       9.72800681      -0.15887814       0.00249131       0.16485638      -0.61045886       1.63532318      -1.32596222
Cs       8.84895830       9.43899443      15.86867295       0.05103592      -0.24438915      -0.00097689      -0.22289152       0.66057829      -2.00877210
Cs       3.36428149      16.16767366      22.21747760      -0.06157778       0.00980837      -0.01426159      -1.99580040       0.15975727      -0.77303324
Cs       3.40483269       9.50406217      22.26746423      -0.00094332      -0.05107957      -0.02962518       1.14275081      -0.15876222      -1.75566655
Cs       9.59580795      15.96902915      15.76417750       0.05363982       0.01235356       0.00281223       2.58841440      -2.83087613      -0.00464827
Pb       0.33616920      12.89404062      19.55822269      -0.00904711       0.10039773      -0.12565694      -0.42627670       3.13282231      -0.74525395
Pb       6.83718967      12.89295679      19.16023886      -0.09703598      -0.11547718       0.06688127      -0.00675748       2.08024485       1.70393514
Pb       0.00511645      12.66454019      12.89839159       0.03376173       0.02792935      -0.00634957       4.11896558      -1.62357775       0.31929854
Pb       6.37275255      12.85419210      13.27377933      -0.00881099      -0.01406975      -0.18236160       0.16450633       1.42007284      -0.52175286
I        3.55596536      13.09964641      19.60549335      -0.01903733      -0.03063151      -0.00737795       1.06309266      -1.42092328      -0.29393712
I       10.06649941      11.92178965      18.20157258      -0.27618824       0.09028362       0.22888006       1.72984162       2.53839145      -2.25898851
I        6.13146767       9.39914761      18.68955469       0.10842304       0.16189274       0.09349716       1.21699897       2.64611686      -0.51751022
I        6.94532364      15.93912248      20.00340267       0.03224196      -0.28645305      -0.05878369      -1.40064848      -1.23066858      -2.41412838
I        9.71831756      12.23193936      13.42939467      -0.05523318       0.00590507       0.02050821      -1.81823378       1.54170286       0.55549741
I        3.22747124      12.80165629      24.01303318       0.15063629       0.09811902       0.30975967      -0.27393426       1.87385558      -1.93506916
I        6.63997198      15.93732079      25.29423229      -0.07736476      -0.34212825       0.12943230      -2.42327537       1.21224851      -0.67634591
I        5.98789661       9.52298051      13.25780208      -0.05541333      -0.03373665       0.02627530      -0.66622620       3.06390563      -2.05953120
I       12.30318164      12.05915751      22.77501251      -0.04005460       0.10856379      -0.20709021      -1.64125936       1.07376085       1.26552798
I        0.09791913      13.18625922      16.14426040       0.05720452      -0.16543527       0.04227046      -0.05062566      -0.08467386       0.60075157
I        6.25409685      13.78333884      16.21015849       0.03659919       0.00573283       0.05583552       0.24817745       0.89995388       2.98100689
I        7.43114400      12.50282632      22.43659792       0.09264557      -0.02153569      -0.16977394      -0.78501070      -3.65025794      -1.77145096
Cs      15.97786051      16.02609204       3.61546957       0.03019375      -0.15626800      -0.20039812       3.48113392       1.82565903       0.06691900
N       10.11071681      21.74362407      10.07447094      -0.13735421      -3.41949938       2.10893141       0.27473152      -0.28289268      -0.13684233
C        9.55827599      22.75040015      10.98916298      -0.49724074       1.55916798      -1.95045859       0.56562668       0.40863367       1.24415239
H        9.48646538      22.58253846      12.03447125       0.43317576      -0.85296210       1.08691278       0.19927052       0.09415162      -0.00269924
H        8.55226017      22.91958127      10.61669807      -0.51930362       0.09835314       0.12802982      -0.15289751      -0.04675795       0.24190157
H       10.08145018      23.70445776      10.77175099       0.03117893      -0.27383203       0.32862791       0.13900801      -0.12569815       0.26901625
C        9.85149866      22.09258238       8.67668629       0.19456794       0.87926836       0.68462229       0.97041151       0.06547346      -0.21776857
H       10.25945648      21.35837606       7.99854297       0.34049768      -0.15783815      -0.37359231      -0.03868889      -0.21014990       0.07820944
H       10.25843158      23.11278015       8.61989712       0.05737472      -0.16334002      -0.81007421      -0.14250489      -0.11501329       0.18812438
H        8.77971026      22.15241706       8.58681190      -0.66096859      -0.00688975      -0.34243832      -0.06210595       0.04479440      -0.08711003
H        9.71804148      20.70561171      10.35582233       0.56438517       1.98705059      -0.47106268       0.05784550      -0.11313488       0.19260861
H       11.10478459      21.59881917      10.31607107       0.16991723       0.18923315      -0.38930799      -0.07659477      -0.20248333      -0.50970018
Cs      10.33127045      16.05702628       9.29146774      -0.20462291       0.14161453       0.20166950      -1.04288589      -2.86724574      -0.05084117
Cs      16.15867876      22.09825560       2.49324885      -0.10207380      -0.05632498       0.06874042       0.97164377       1.73707895       3.98479903
Pb       6.21466563      19.07485081       6.43251804      -0.00005211       0.02850765       0.12239159       1.31472021       3.90592024       2.37611303
Pb      12.93523354      19.30587049       6.67610120      -0.25279594       0.00023369      -0.01039223      -1.09872535       1.17966913       0.30634165
Pb       6.53146932      19.03953305      -0.09048806       0.15204658       0.57373446      -0.11470509      -2.98784573      -1.07516125      -0.36716720
Pb      12.96340454      18.88206456       0.21757967      -0.03271405       0.05790255      -0.32202221      -0.81360196      -2.31593975       0.58265713
I        9.65305151      18.99441621       6.20588072      -0.04993016       0.17071765       0.07801539      -0.14068176       3.73746916      -0.48804635
I       15.72392661      18.03195725       6.57411366       0.25847749       0.12369966       0.17207387      -0.95745371       1.48159947      -0.99251324
I       12.16541973      16.06196595       6.09012342       0.14580984      -0.23872068      -0.02960918       2.18304092      -0.14476527      -1.47358616
I       13.08468774      22.62253965       6.91639050      -0.13353698      -0.11515053      -0.25861632       2.45798298      -1.88525329       0.76143816
I       16.09249669      18.25484288       0.34704739      -0.33647346       0.01876025      -0.12002055      -1.72685202      -1.98565777       1.93000554
I        9.82445986      19.16669860      12.36183293      -0.23186271       0.02703534       0.00538864      -0.28209969      -3.43482292       1.93468319
I       13.90507502      22.64081912      12.20765719      -0.13680980      -0.06601516       0.03614652      -2.04510800       0.94520224      -0.66842861
I       12.04634077      15.65683311       0.24923693       0.02338663       0.47096426       0.01809089       1.41825340      -0.37445381       0.43800101
I       18.16087955      19.97402709       9.67273128       0.16091578      -0.09448125      -0.07578490      -3.44319614      -0.42123055       1.71064490
I        7.06421312      19.26122721       3.15159551      -0.15812135      -0.13891465      -0.08568656       2.78296964      -2.87114081      -1.65392613
I       13.09421551      19.30262466       3.55806390      -0.00993803       0.12498034      -0.33294271       0.23242399       0.29055085      -0.19293810
I       13.26083622      18.62271817      10.14144765      -0.01956434       0.10770663      -0.25674188       0.65030426       1.08512643       2.86663206
Cs      15.70426494      15.95704329      15.92795964      -0.00229100      -0.06797890       0.10857418      -0.01911694       0.39829263       1.93066599
Cs       9.58798604      22.44631588      21.94376668       0.06994633      -0.00842218       0.11948154      -0.09047154      -2.69780290      -0.64324103
Cs       9.56754929      15.69758673      23.01947563       0.23618028       0.09065563      -0.11601816      -2.42741824      -0.95855019       2.48535392
N       16.88125076      22.29755451      16.16440520       0.89418981      -0.60235566       0.00925495      -0.02313466      -0.38358079      -0.21990148
C       16.26689305      23.60371520      15.81156963      -0.40048866       0.35914910       1.34023787      -0.28519442       0.19353490      -0.08660341
H       16.04474624      23.68401930      14.75840440      -0.19560783      -0.26423661      -0.55198804       0.04742085       0.14344610       0.29208955
H       16.96347489      24.38767512      16.07836492       0.48242293       0.30433523      -0.01210300      -0.02189816      -0.07606455      -0.01599948
H       15.37024430      23.80762909      16.43586231       0.18852625      -0.43772388      -0.32829586       0.10216989       0.02753891      -0.14533631
C       15.95250569      21.13359188      15.89662997       1.07615169       0.99866203      -1.03028875      -0.86282418       0.42867302      -0.10270158
H       15.19287465      21.15778675      16.64143307      -1.18707582       0.37590690       0.39738480       0.05448996      -0.05919866      -0.17040848
H       16.44347737      20.18883886      16.04912734       0.73440953      -0.50287520      -0.05238483       0.17251230      -0.30270162      -0.19629998
H       15.65859014      21.25139106      14.82758317      -0.31402540      -0.17258956       0.70861076       0.20289065       0.28664658       0.19972101
H       17.22205613      22.26950778      17.18669338      -0.28221502       0.22128613      -0.89204383       0.02575261      -0.33449173      -0.23236068
H       17.80247703      22.23748431      15.56336595      -1.11923927      -0.20098290       0.58277921       0.09099958      -0.09782370      -0.07971770
Pb       6.80299612      19.02904668      19.47333289      -0.49768962       0.10170563      -0.19201156       3.58200945       0.92551632       1.79141293
Pb      12.76120545      18.82230920      19.37979401       0.40017232       0.00974766       0.21469604      -1.81945331       3.59686001      -0.28196493
Pb       6.59371382      19.02478153      12.74297927      -0.11664334       0.08640074       0.11673309       2.24083464      -1.71602147      -0.99272928
Pb      13.31917968      19.68767119      13.08133564      -0.42511823      -0.06202373      -0.13456288       0.94567583       2.33784130       0.41154812
I        9.75677273      19.08417789      20.00668289       0.21336499       0.04384870       0.07270703       4.18903330       0.79485843       1.17724435
I       16.31380823      18.27206946      19.27828323      -0.07299988       0.07951365      -0.24345111      -0.50645068       0.58589618      -0.29814016
I       12.68913514      15.49342205      19.04553709      -0.10785531       0.19706081       0.08732454      -1.72847656       0.76397632      -2.10702444
I       13.23667161      22.09100999      19.56085770      -0.08976690      -0.07495390       0.00683705       1.08269164       2.42940860      -0.51978329
I       16.06941361      18.47696857      13.04762983       0.24205827      -0.25653119       0.03451388      -3.35037345      -0.07570311       1.60939401
I        9.78164280      19.36608517      24.89551086      -0.03191224      -0.07676771       0.10865179      -2.89386363       4.42993248      -1.99181164
I       13.83270673      21.84795923      24.89268070      -0.05153501       0.10798151       0.27727732       1.08921717      -1.78498192       1.50020722
I       12.36572723      15.87492042      12.92916675       0.03004578      -0.15157101       0.07453720       2.49938919       1.20591947      -1.65644103
I       19.09372037      19.90840514      22.49798772      -0.16048258      -0.10438024      -0.28489012      -2.78666650      -0.11957374       0.39510946
I        6.60145188      18.78750027      16.14100254       0.04589625      -0.06606626      -0.07155343      -0.21257970       0.28722708      -0.53911000
I       12.70900291      18.50121739      16.27379672      -0.08349247       0.08240472      -0.14256568      -0.15707550      -1.23698156      -1.18809343
I       13.51635870      18.28813175      22.56745306      -0.10371155      -0.04747938       0.11883279      -0.63370011      -2.39971391      -2.21482568
Cs       9.57116029      22.23535726       3.88478137       0.02769396      -0.05826957       0.02526698       0.25457931       1.47518896       3.49416586
N        3.34717122       3.72319559      10.54058827      -1.36469930       0.43814622      -0.54420995      -0.15812124      -0.57623460      -0.88051905
C        4.69676551       3.23005120      10.42263413       1.78563223       0.85023684       2.04624827      -0.04482259      -0.04475131      -0.55060590
H        5.00286700       2.83669014      11.44722496      -0.03789072       0.09106794      -1.19838584       0.15131219       0.00208932      -0.01642956
H        5.40045896       4.02726520      10.07544067      -0.53447256      -0.37422520       0.45427585       0.09490060      -0.05318343       0.14813972
H        4.63981080       2.51570724       9.66583028       0.34597367      -1.65643853      -1.18794149       0.20542216      -0.04119988      -0.13712311
C        2.26636780       2.66133559      10.42119436       2.14596152      -1.15931368       1.40169329      -0.07076447       0.54900942      -0.06583142
H        1.67991882       2.89930064       9.59760900      -1.39923009       0.45786194      -1.57052656      -0.15668383       0.01488562      -0.04267950
H        1.71175278       2.42924325      11.34813228       0.07919584       0.81673904      -0.09080690      -0.07570997      -0.07594338      -0.00884525
H        2.81914524       1.71284486      10.24020011      -0.23162354       0.45695188      -0.28040689      -0.27018745       0.03473861      -0.09761748
H        3.30903333       4.45308625       9.82801981      -0.75968050      -0.00591639      -0.77603688      -0.02441805       0.05069740       0.09001130
H        3.18213415       4.29117603      11.35861365       0.04367187       0.36602931       1.52693181      -0.32163887       0.01754857       0.04773064
Cs       2.61014701      23.32095468      10.16528817       0.17560033      -0.08832691      -0.03419878      -0.70715220      -0.53255111      -0.67001543
Cs       9.71322415       2.33824744       2.76502908       0.05070205      -0.01494110       0.17415241      -1.03869565       2.08224827       0.26065479
Pb      -0.13621684       0.00564685       6.87053226       0.26745337      -0.01776562      -0.30403800      -3.09357086      -4.71558810       3.25546386
Pb       6.66401762      -0.01496660       6.79153993      -0.16944579      -0.10961349       0.04584119      -1.93084185       2.66599793       4.36191311
Pb       0.10456641       0.10468684       0.22973760       0.20258014       0.05058013       0.06150801       0.05394261      -0.86138667      -2.48290642
Pb       6.91678126      -0.37877073       0.25957538      -0.13760988      -0.06064532       0.12395685      -0.94661266       2.01619920      -2.84498149
I        3.16068620       0.20894201       7.30824901       0.20380863       0.05379438      -0.16615283      -3.91432769       5.76755138      -0.39026686
I        9.90937468      25.57537073       5.86349635       0.02095227      -0.12328101       0.05364316      -0.00417035      -0.47266225       0.13550449
I        6.05192286      22.37821350       6.85304875       0.02192732       0.06619408      -0.18301063      -3.33729753       1.09218533       1.72471240
I        7.10777311       3.34472005       6.05127019       0.01836120      -0.12860225       0.04103374       0.45613989      -0.28610779       2.33792909
I        9.80715004      24.32273942       0.62838654       0.27342462       0.15891502      -0.01619505      -1.86904503       0.15621850       2.67011563
I        3.21250142       0.21694394      13.26579618      -0.39672844       0.00376508       0.17514584      -2.06037058       1.33569273      -1.86989776
I        7.15615046       2.54807553      13.20643614       0.09062662       0.56463823      -0.13691342       1.15251572      -1.96455964       1.33554746
I        6.37103325      22.46868256      -0.61056442      -0.18940231      -0.30765682      -0.01813302      -1.93991781       1.07851220      -0.48943656
I       13.10616807       0.60451255       9.99451941      -0.09897551       0.05773440      -0.29494354      -0.41762218      -0.93500535       0.59669386
I        0.27793882      25.53246783       3.26075347      -0.12414475       0.13125695       0.24538115       2.51535237      -0.07303933      -2.55441786
I        6.88081806      -0.71229598       3.83739624      -0.18571615       0.04670789      -0.28806088      -0.29042904      -0.08189955      -1.72663671
I        5.98583102      25.22684103      10.25750317      -0.14432839      -0.27344711      -0.10998686       4.32140518      -0.52515433       1.64080514
N        9.72343679      22.31485855      16.72263963      -0.04290977      -2.01500295      -1.25854774      -0.32573547      -0.22533527      -0.64088718
C        8.36927914      22.75082158      16.26430298      -0.50057842       0.66954966      -0.18922894      -0.04377702       0.72085159      -0.28876824
H        8.21361076      23.80862998      16.48730030       0.23892807       0.25130961       0.08597524      -0.21242727      -0.03258075      -0.00898666
H        7.58342160      22.20183567      16.79877579       0.20354760      -0.17490840      -0.03441330      -0.07173302      -0.17296796       0.26979071
H        8.23871338      22.62333428      15.17604696       0.32706544      -0.28964763       0.22870555       0.04141195      -0.02264895      -0.03843775
C       10.89645696      22.68110796      15.84960044      -0.68517169       2.36578977      -1.40883205      -0.20683822       0.52985612      -0.42202195
H       10.62910704      22.47762727      14.79473954      -0.14716772      -0.16749572       0.33073795       0.41303776      -0.33193433      -0.07531556
H       11.78370919      22.12320568      16.05991978       0.58069195      -0.49377423       0.66734167       0.02769050      -0.02207080       0.09756853
H       11.11515425      23.83285845      15.85654912      -0.43361133      -1.78716511       0.43853849      -0.21210001      -0.13071097      -0.18701486
H        9.62995199      21.25317499      16.75890962       0.47748207       1.00974524       0.03005049      -0.01626644      -0.01962024       0.15663545
H        9.92186029      22.61372040      17.66174613       0.03794727       0.45999470       1.11697491      -0.09210451      -0.05584833      -0.07905006
Cs       3.13485260       3.13178617      22.80056481       0.04955326       0.15813382       0.03536104      -2.29682034      -0.34503204       2.48202609
Cs       3.18234202      23.38612815      22.94449708       0.06678343      -0.18381551      -0.10255815       1.77030360      -0.51043594       1.20482700
Cs       9.53640607       2.20004029      16.22734810       0.02561678       0.23415300      -0.00670516       1.74090266       2.61658720      -0.03583914
Pb       0.08983694       0.15623442      19.48056548      -0.05561219      -0.16075769      -0.08772161       0.52736789      -3.83492284      -1.27505630
Pb       6.32854969      -0.10643239      19.72616536       0.24180224      -0.14388285      -0.18947533       2.65609211      -0.01782324      -1.52157177
Pb      -0.22699089      -0.07519001      13.25225620       0.03953116      -0.05313335      -0.09077159       0.96139419      -0.78530208      -1.69896054
Pb       6.29712408      -0.42693468      13.49720301      -0.14525367      -0.02581876      -0.04960828       0.21101636      -1.83934110      -3.98768655
I        3.33182754      -0.35414453      19.33026055      -0.49510616      -0.05982984       0.06855272      -1.55340735      -1.02680698       0.52575486
I        9.64398845      25.43359710      18.89294430       0.18211107      -0.10432955       0.13473413      -0.11318894       2.97379714       2.12331703
I        6.19770717      22.19748517      19.87969741       0.05081669       0.14457911      -0.02728046      -0.62215017       0.88871543      -2.61521356
I        5.79844698       2.92481968      19.83144747       0.00671663       0.29470533       0.10782949       1.73671799       2.15122761       0.16603300
I        9.61036142      25.38154790      13.33404045      -0.08877904      -0.00714715       0.09477295       0.34890300       1.77408611      -0.18887867
I        3.42916167       0.52366956      25.63260900       0.15329107      -0.05495559      -0.08111811       0.52160405      -0.51305404       1.26578211
I        7.25174906       2.62851618      25.76319905      -0.09833686       0.41177377       0.19094693      -0.46493473       4.97981994       1.42997165
I        5.50188892      22.26899384      13.32107692      -0.07113323      -0.33791506       0.05392581      -1.28744782      -0.83411101      -0.97528181
I       13.30403403      -0.30596683      22.67451346       0.01947919      -0.12012449       0.08975720      -0.86017008       2.72667361       0.79325124
I       -0.12320035      25.44361984      16.26047991       0.10733541       0.00272875      -0.13249727       2.05083259       0.56491377       2.36312150
I        6.04620814       0.70245524      16.60485642       0.01661865      -0.09753700      -0.12076783       0.16552238       1.16259138       2.19891069
I        7.13541772      25.41405980      22.73745665      -0.24605329      -0.13514867       0.05187537       0.63828088       1.51634113      -0.77340005
N       16.88919131       2.93144489       3.34511111       0.51331491       0.36924236       1.82195451       0.55254658       0.36213839       0.14230182
C       17.44677286       4.15859261       2.79385214      -0.30225872       0.85307732       0.42334034       0.38923287      -0.07699995       0.17767750
H       18.53641206       4.19936719       2.82932836       0.08985749      -0.43420009      -0.67345427      -0.08960240       0.21441132      -0.11746902
H       17.15415028       4.99914863       3.42536005      -0.25750651      -0.02306186       0.36251606       0.12325538      -0.02977146       0.07150630
H       16.89330783       4.32476709       1.86793976       0.56763728      -0.13161834      -0.55830691       0.32611638      -0.19072690       0.10090925
C       15.38630877       3.07024726       3.46507166       1.24562669      -0.30743169       0.29579920       0.50598903       0.29711928      -0.04166668
H       15.25841076       4.01320938       3.96276666      -0.51030547       0.44100289       0.55647802      -0.07615139       0.10465208       0.05704892
H       14.98382039       2.21730025       4.00099358      -0.22209472      -0.13397193       0.14115555      -0.22470811      -0.15774469       0.13350472
H       15.01390966       3.15720355       2.46374155      -0.46941366      -0.06607269      -0.72842757      -0.16883035      -0.21696619      -0.21812245
H       17.41452852       2.78570446       4.26281473      -1.00574753      -0.18400551      -0.66972915       0.34761029       0.00038392       0.02081772
H       17.13297706       2.12679729       2.78798492       0.24316676      -0.79874643      -0.60420409      -0.28689979      -0.13076659       0.26331475
Cs       9.81759379       9.94905284       9.56132634       0.06990284      -0.22019428       0.07662477       0.71786077       1.60797809       2.85043931
N        9.22188631       2.75452899      10.05656139      -0.10426198      -2.76584118       1.25740364       0.16457135      -0.29999158       0.27304358
C        9.50732860       3.90758723       9.21172547       1.02496696       0.85184079      -0.62664047      -0.07275988      -0.28728949      -0.41137443
H        8.57900303       4.42746932       8.90639253       0.33555782      -0.22488580       0.17213666      -0.10813512       0.40851837       0.14648139
H       10.07776439       3.53224103       8.31509176      -0.59111580       0.30187224       0.56434083       0.34999680       0.03473534       0.25126378
H       10.22516706       4.57331882       9.77637624      -0.81486873      -0.30789029      -0.45178880       0.25559425      -0.22443904       0.01380615
C        8.51882876       1.56478904       9.34613545      -0.34556971       1.89686775      -0.65188466       0.06270159       0.19306125      -1.37648065
H        8.35823840       0.74790826       9.97612329       0.63887209      -1.40522752       1.64237404      -0.12974139       0.33730371      -0.02193064
H        9.01182204       1.22672146       8.42999449       0.28993244       0.46519431       0.05987069      -0.13316399      -0.00721131       0.27306597
H        7.44999339       1.81757237       9.18470380       0.54271299       0.68627284      -0.45869523      -0.14808367      -0.00315351       0.07650756
H        8.57795169       2.91454326      10.89819748       0.62234837       0.37163107      -0.52892301       0.09799201      -0.39663201      -0.22688392
H       10.15128833       2.41870039      10.49975714      -1.40465015       0.32533740      -0.69417205      -0.13155432       0.03267630       0.00501512
N       15.63361432       9.10981933       2.81742061      -0.49510549      -2.29821240      -0.00118932      -0.18142130       0.65492782      -0.50953703
C       16.52141655       9.87626125       1.89579692      -0.08820832      -0.63257013      -1.19602273       1.67420653      -0.36400800      -0.01924491
H       16.74218874       9.20234875       0.98883966      -0.15737450       0.97843308       1.14777072       0.10316130       0.04937457      -0.09934571
H       17.41448008      10.12405757       2.45817182       0.45880007      -0.08245273       0.06866783      -0.14532752      -0.10677453      -0.26999327
H       16.05125396      10.81110831       1.56667323      -0.21496066      -0.09592652       0.09427318      -0.11796386       0.55570354       0.04695653
C       15.61349325       9.54756098       4.23927967      -1.39714523       0.35965006       0.89502885       1.09967643      -0.91090665       0.89841036