960
Lattice="26.850379413619606 0.028023410194694506 0.10323380635775517 0.06172318415931346 27.789911807460435 0.12454660053207461 0.15999526392940888 0.09383999181338734 26.696777937056822" Properties=species:S:1:pos:R:3:forces:R:3:momenta:R:3 energy=-4267.4765625 stress="0.0015205151867121458 7.081551302690059e-05 0.0005704992800019681 7.081551302690059e-05 0.002699148142710328 -0.00035514161572791636 0.0005704992800019681 -0.00035514161572791636 0.0024780812673270702" pbc="T T T"
N       10.52695489      10.18799384       2.74701542      -0.48930542       1.32015766       0.51672356       0.41630378       0.75707564      -0.02469724
C       10.52454880       9.89784831       4.23714557       0.11159547      -1.33225222      -0.64107271      -0.65923453      -0.32597000       0.68091169
H        9.85774860      10.56685676       4.77672926      -0.10073124       0.20877514      -0.08776443       0.01706875       0.03755763      -0.24654027
H       11.55855374       9.96691402       4.58874818      -0.08601417       0.12470157       0.21784501       0.01609283      -0.06784496       0.16906455
H       10.19285115       8.83648435       4.35696728       0.07891903       0.66402410       0.07859825       0.26013674      -0.07038851      -0.03402522
C        9.59934098      11.34921897       2.39080153       0.73008223       0.04166609       0.75667393       0.21225613      -0.68447460       0.71250996
H        8.59499369      11.18544083       2.83543306       0.47594693      -0.11039655      -0.55077775       0.16320537       0.16930570      -0.03575250
H        9.69140984      11.49703320       1.30915181      -0.54990380      -0.23897091      -0.06268243      -0.05100786      -0.13606331      -0.15314451
H       10.04730278      12.25539785       2.83190472      -0.13287803      -0.24955692       0.12495953      -0.17640044       0.03329269       0.22005678
H       10.20674278       9.36337893       2.15835469       0.68054557       0.23662992       0.28643447       0.05524975       0.18201326       0.11219706
H       11.50086791      10.52793259       2.51134874      -0.75781315      -0.74018896      -0.51004806      -0.18959944       0.00311508       0.08021999
N        3.45334723      17.12108440      11.78231370      -0.43936475      -0.50669610       0.46672844       0.16977986      -0.89068089      -0.14137025
C        2.21508703      17.59254924      11.15413787       1.10801823       2.09325646      -0.75009492      -0.41454279      -0.06302436      -0.20850669
H        1.66717373      16.76241615      10.83488548      -0.96805625      -1.19783223      -0.83112449       0.03790202       0.05918747      -0.06548130
H        2.51622719      18.32543897      10.37819810      -0.18872448      -0.75309445      -0.30867504       0.01667163      -0.38873033      -0.17440164
H        1.67649853      18.23555542      11.81517802      -0.60695463       0.14072392       0.99573995      -0.04495731       0.06445379       0.25185593
C        4.29063086      16.24653189      10.91883072       2.87519997       0.26668947       0.81581380       0.76543815      -0.06410748      -0.34555402
H        3.95320324      15.21824092      10.78017443      -0.65706719       0.11886343       0.01547494      -0.03074557       0.00864967      -0.04348556
H        5.30039350      16.18462585      11.48490685      -1.28323617      -0.11577806      -0.78548219      -0.06422080       0.11541087      -0.16700960
H        4.54459341      16.75524109       9.97854743      -0.48553141       0.02399920      -0.03558269      -0.06152942      -0.04969856      -0.02942070
H        3.14677466      16.56903442      12.62786761       0.74171666       0.27889631      -0.15518242       0.16607248       0.01631481       0.05738274
H        4.01266706      17.95213304      12.05240281      -0.04049006      -0.27749489       0.39051828      -0.22657166       0.10581535      -0.01423272
N        3.45907889      10.95576039      11.21275140      -0.98905634      -0.83124796      -1.31586140       0.21158145      -0.27899635      -0.06347784
C        3.64915417       9.46597799      10.96992085      -0.92767601       1.17688845      -0.51216563       0.68985471       0.23979404      -0.42314451
H        2.89716110       9.06163554      10.27539049      -0.12651741       0.57195030      -0.07478455      -0.02799823       0.08799034      -0.18163176
H        3.49330943       8.90558998      11.87239582       0.52767747      -0.23909329       0.64325163      -0.07886102       0.01216898      -0.05947624
H        4.58478034       9.45377286      10.45483563       0.98506572      -0.70859902       0.12779104       0.17855286       0.03285562      -0.10515280
C        3.87798771      11.72754015       9.99218823      -1.34501093       0.93588349      -0.67318675       0.33728554      -0.40390744      -0.08310375
H        4.84888695      11.32384157       9.69426887       0.17611285       0.46104130      -0.06032509       0.08492016      -0.06397451       0.10283814
H        3.78479692      12.84666129      10.12217704       0.66194364      -0.98198751       0.42085008      -0.13154195      -0.16806871       0.05138168
H        3.13924872      11.59514326       9.15508022       0.41379609      -0.56815603       0.57692967       0.18041180      -0.17084931      -0.00864404
H        3.98683656      11.28533361      12.00674366       0.54550151       0.17702319       0.82338979      -0.14053630      -0.00460913      -0.15079478
H        2.45685540      11.10051583      11.46439372       0.04403967       0.23834589       0.00418478      -0.04734114      -0.31131683       0.10526072
N        9.21111945      18.30447512       2.11785182       0.62616855       0.37578323       0.12362424      -0.06242701      -0.00687279       0.50212064
C        9.53072868      16.97151998       2.66323679      -1.35909563      -1.25441900       0.08880839      -0.14341828      -0.54030847       0.68474109
H        9.79020971      17.02594417       3.69140141       0.86098280       0.48294700       1.07987805       0.12846946      -0.04008807      -0.24331228
H       10.28328026      16.39652763       2.09321503      -0.32981234       0.44576953      -0.01541329      -0.31068923      -0.04139344       0.02728578
H        8.55012285      16.42936279       2.73908975       0.64974990       0.03124951      -0.46615160       0.35889307      -0.01344971      -0.12493427
C        8.41834408      19.18759544       3.12068956       1.94399912      -2.30609633       0.29760951       0.33839514       0.29563375      -0.01271511
H        9.16798670      19.67128120       3.75849124      -0.02914001       0.14507815      -0.10450302       0.12920303      -0.14399534      -0.23003100
H        7.88295975      18.46754505       3.77974146      -0.16923301       0.55703929      -0.62793054       0.13593748      -0.05292479      -0.15136679
H        7.86217146      19.87338865       2.54215120      -1.01631918       0.80287157      -0.44321227      -0.04465800       0.27449355      -0.05666908
H        8.66737885      18.05931597       1.25208492      -0.21587915       0.60106247      -0.04454616      -0.00072185      -0.03746331      -0.12859844
H       10.11321569      18.75341766       1.80983363      -0.68930072      -0.08064690       0.14777272      -0.22643455      -0.03800106      -0.08747032
Pb       0.18516110      14.09451823       6.75037786      -0.35655396       0.00001486      -0.21140404       0.06809331      -1.10605841       2.71277739
Pb       6.76176055      14.17735650       7.40979599       0.02063364      -0.14882347       0.12940526      -0.78938630      -3.56259779      -0.41760603
Pb      -0.06417746      13.62858848       0.02523943      -0.12169798      -0.05488588      -0.09663919       3.94797676       1.29897964      -2.37580265
Pb       6.72028360      13.91834757       0.04130167      -0.02995543      -0.10430432      -0.09532377       0.09426706       2.18704015      -3.28796923
I        2.99215777      14.79997589       6.52280502       0.50409890       0.06423361      -0.01511692      -1.22275414      -1.98068782      -0.72069427
I        9.49560033      14.65560330       6.49785691       0.17618802       0.06249754      -0.05769380      -2.38702534      -3.75249174      -2.52965973
I        7.51498127      10.69792632       7.03596707      -0.23522429       0.00051376       0.06729150       1.17803006       1.42964528      -0.87746448
I        6.95166607      17.84208790       7.66457516      -0.14138264      -0.37762160      -0.07299700      -1.59160528       0.39727717       2.73148553
I        9.80616027      13.59219475      -0.47488151      -0.04583269       0.08292928       0.01262416       0.51686342       0.22820630       1.90144444
I        3.80754523      14.01152944      13.55387932      -0.11651817      -0.06341246       0.12253604      -1.21326665       1.80821078      -0.92233612
I        6.81586706      17.77143947      13.58064337       0.10709780      -0.07878671      -0.02805539       1.04678553       2.41643456      -0.00977953
I        6.42265210      10.47725035       0.30470529       0.02565435      -0.00716488      -0.10422339       0.67963567      -1.13546117       0.38508199
I       13.43468680      14.73174516       9.50070909       0.13973742       0.01233933      -0.27830481      -1.58533647      -1.58785428       1.49135529
I        0.59029080      13.67931083       3.05697716       0.07178467       0.10020914       0.12566843      -0.39510882       1.03809345       2.28860567
I        6.39883833      14.06279104       3.08442123       0.13178553      -0.14031294       0.08926193       0.91453300       1.85512378      -0.96007647
I        7.76311635      13.52494886      10.38674601      -0.44200443       0.27897746      -0.25673822      -1.81642895       5.15584072       0.09949607
N        9.30016872      10.31342482      16.91953404       1.27377128       0.29459149      -0.51482916       0.04001814      -0.40262744       0.16019816
C        9.92535617       8.93569848      16.83966360      -0.24020433       2.54305368       0.61806643       0.37589576      -0.00868692       1.18188267
H       10.79491218       9.05200866      16.27560397       1.71437840       0.09221462      -1.04102791       0.00190774       0.04862890       0.12685543
H        9.25842520       8.31471963      16.36254130      -1.59893695      -1.58206186      -1.03867725      -0.26827550       0.04525846      -0.24074037
H       10.16139606       8.62383530      17.82216425       0.19937828      -0.48374725       1.20541416       0.10669817      -0.17231517       0.12201448
C       10.22869712      11.37612777      17.55122120      -0.21466464      -2.61993598      -0.63009021      -0.37404232       0.77753119       0.35786649
H       10.65636750      10.91823655      18.45782662      -0.27800209       0.23650371      -0.05361991      -0.17057719       0.10040041       0.00793064
H        9.61371831      12.21221575      17.71475543      -0.67734073       1.35407201       0.41806850       0.15222179       0.17374626       0.07126883
H       11.02835196      11.55428039      16.85102860       0.34866181       0.20963080      -0.44048357      -0.06230798      -0.06349810       0.15456139
H        8.44290473      10.24701540      17.43153623      -1.16591769      -0.27833738       1.62661346       0.23072679       0.02654153       0.15063139
H        8.86848843      10.60199239      16.01726918       0.78627229       0.11979355      -0.50284168       0.08498045       0.00950270       0.02557691
N        2.19847685      16.30689900      23.80955405       0.66810940      -1.42051284       0.09392941       0.52482224       0.27734710       0.31150381
C        3.56703617      16.56134998      24.46036886       0.14879881      -1.05217070      -1.86834913       0.19195652      -0.37801136       0.14278514
H        4.02564175      17.35697889      23.87418431      -0.20588509       0.72214079       0.48526356      -0.00274178       0.10357432      -0.10128086
H        4.28143978      15.72207405      24.25345292      -0.75717874       0.04474556      -0.06279064      -0.07119818       0.14252843       0.15921218
H        3.52989591      16.63551428      25.52545172      -0.32378134       0.65149857       0.82015641      -0.18445663       0.07305451      -0.05850398
C        2.32732086      16.30456820      22.30518865       0.16655696       1.31056327       0.65574220      -0.10310606      -0.29531604      -0.87334048
H        3.19555674      15.69015100      22.01185663      -0.26460920      -0.22224402       0.32209608       0.40618614       0.02446826       0.07540408
H        2.61829837      17.32892428      22.10849005       0.01805213       0.44008584      -0.56798357       0.03079497       0.14228233       0.17182034
H        1.42906844      16.04801128      21.73423009      -0.12349982      -0.17286169       0.38404319       0.18446794      -0.24024105       0.01332106
H        1.39070049      16.81699557      24.30144852       0.76883194       0.16960179      -0.66565760      -0.01726609      -0.26533782       0.18011899
H        1.95340494      15.31843381      23.99764858      -0.14794093      -0.12978086       0.53392651      -0.02632228       0.02916134      -0.01729569
N        3.84140857      11.41989623      23.46596951      -0.26019752      -0.60500166      -0.15761944      -0.02928121       0.76942014      -0.81506401
C        2.56622310      10.98844941      22.74875694       0.90849097      -1.39313123       0.49849811       0.30464179       0.83190807       0.11691456
H        2.88095948      10.51597418      21.79347755      -0.14839170      -0.16128777       0.59645368      -0.13481139      -0.25429297       0.09784673
H        2.01013360      11.82755862      22.46998222      -1.05367111       1.65080200      -0.20493190       0.01993252      -0.07028439       0.18286321
H        1.92408033      10.30857947      23.38879081       0.92173835       0.49820655      -0.55015767       0.01842187       0.03577939       0.05171813
C        4.94791717      10.43839427      23.15535182       0.02137524       0.29947060       0.23536243      -0.32556593       0.08103966      -1.32709253
H        4.33070092       9.55514900      23.24405852       0.68174077      -1.13143134      -0.57938367       0.26202057      -0.23733083       0.01638467
H        5.74893937      10.39280071      23.91756009      -0.44123674       0.34480754      -0.02448530      -0.15582132       0.10203337      -0.00740581
H        5.44138371      10.65191895      22.16254180      -0.83000912      -0.35311317       0.70388046      -0.31187134      -0.08762680      -0.06642588
H        3.70917281      11.51149895      24.49787934      -0.04799322       0.03482206      -0.28525250      -0.04152461      -0.05014522      -0.01107830
H        4.13693341      12.33870776      23.14731699       0.23028790       0.77207241      -0.20380049       0.09358938       0.01570104       0.05230070
N        9.13876683      17.29685942      16.49952977      -1.58684765      -0.42852564      -1.19767677      -0.57868327      -0.64515227      -0.22453737
C        9.69518692      17.90938430      17.71466898       0.25749853       0.57725173       0.27951194       0.44759243      -0.58194843      -0.26919990
H       10.16585261      17.14719500      18.35107020      -0.08290207      -0.06597490      -0.19097040       0.12307643       0.11648316       0.02779419
H        8.88019398      18.40658968      18.25810383       0.15313776      -0.09144148       0.03824717      -0.06106242      -0.01548822      -0.13850530
H       10.45240501      18.65838520      17.41582788      -0.16889029      -0.21862593       0.02737170      -0.13783175       0.09236692       0.11609013
C       10.12850355      16.65357135      15.62120136      -0.43184412       0.21213303      -1.17135164      -0.23810246      -0.13729317      -0.47157996
H       10.85985412      16.12720480      16.20607515       0.30514293      -0.46480817       0.37492692       0.16150386      -0.20442673       0.15534501
H       10.59243831      17.48819993      15.09915191       0.51772519      -0.01210135      -0.30711977      -0.11530010      -0.02986922      -0.20690379
H        9.59352675      16.00377565      14.87425851       0.51336462       0.39747792       0.67833077      -0.07156886      -0.04198233      -0.14713618
H        8.60907340      17.97623169      15.86235683       0.36424922      -0.32765102       0.94975613       0.23185338       0.39543536       0.01609990
H        8.42196256      16.53952945      16.68625216       0.20144030       0.35345621       0.49712384       0.03531392      -0.53985265      -0.07418355
Pb      -0.25716345      13.88912930      20.10560280       0.04060206      -0.05708089       0.04514243      -2.69004756      -1.54332950      -5.56031279
Pb       7.27363540      14.48210872      20.07899222       0.04671994       0.24138825       0.09332460       6.55480470      -1.92944008       2.65215424
Pb      -0.00279168      14.23622621      13.23887890       0.10454763      -0.40343948       0.20342265       0.33638679      -0.11167246       0.94790835
Pb       7.21573571      13.58169798      13.59720151      -0.29844788      -0.13441843       0.02097364      -4.06707779      -0.31357201      -2.17331264
I        4.34598906      14.96322169      19.81680110       0.01729342      -0.14913775      -0.31151658      -0.68654631       1.58138784      -1.65049079
I       10.95088502      13.94686377      19.79961179      -0.26698098       0.10382583       0.27058972       1.38224492      -0.71540431       2.00055471
I        7.28217035       9.81548163      19.72912086      -0.00328346       0.14679989       0.25807535       0.53924077       3.29458749       1.25951496
I        7.17570101      17.78196650      20.35628761      -0.05988387      -0.28846538       0.11756796      -1.09806819      -1.10213445       0.43698718
I       10.23511744      13.23939922      13.52517047       0.19197851       0.11593533       0.21717119      -1.01992099      -3.08310918      -1.15651985
I        3.10419124      13.58225107      26.36008096       0.21088376      -0.10063167      -0.00505066       1.61883972       2.94727406       2.87327048
I        7.05751902      17.06736341      26.49875347      -0.05078902       0.08831847      -0.08587288       0.57047337       0.29362300      -0.84214730
I        7.02977284      10.41554981      13.89638380       0.09788121       0.21858896      -0.02492356      -0.03180138      -1.08630900      -1.40907754
I       13.71640099      14.03935294      23.63990869       0.17156961       0.10493590      -0.47963992       1.34787016       0.25828870      -3.81638750
I        0.57714269      13.68895745      16.52986910      -0.19277895       0.00021831      -0.05458167       0.38823039       2.90946064       1.24042822
I        7.31961454      14.18253106      16.79445410      -0.08250240      -0.01685851       0.03672402       3.26292355       0.19417547      -1.06731006
I        6.54683713      13.65201774      23.04326238       0.10696813       0.09786758       0.00610282       1.93464296       0.45461305      -2.94266079
N       16.85237586      17.40583496       2.60402699      -1.34124731       0.63233676       0.61130602       1.38783471       0.09509071       1.12745320
C       15.33694788      17.73886456       2.67818964      -0.33902739      -1.32923454      -0.16638371       0.72777446      -0.14585382       0.19814584
H       15.14100625      18.80792687       2.38970382       0.36352682      -0.80608321       0.46431394      -0.06807891       0.02938844       0.13281321
H       14.97619478      17.45694101       3.74002300       0.60989870       0.72892381      -1.37915936      -0.14506125       0.02916051      -0.24738649
H       14.76993905      17.04570079       1.97245591       0.71352552       0.78856964       0.62984310      -0.09494507      -0.08923964      -0.14210640
C       17.54288431      18.27384040       3.59465373       1.07605897       0.88178683      -1.56221171       0.48297033       0.24799158       0.22291461
H       18.62273656      18.13943826       3.49354509       0.10022347      -0.12955955      -0.04198232      -0.04888048      -0.18247463      -0.06204841
H       17.29815398      18.01470288       4.59233753      -0.75541924       0.00216562       1.05484165      -0.05886560      -0.19751816      -0.16963842
H       17.35679982      19.33484066       3.24555486      -0.10551052      -0.91020047       0.82244759      -0.27813890       0.07058580       0.04988528
H       17.33814017      17.63166639       1.72199579      -0.43304650      -0.14919544      -0.58711766      -0.16415188      -0.07064219      -0.09494345
H       16.97905829      16.38338852       2.73772845       0.18122954       0.16395951       0.18908816       0.31048728      -0.29637173       0.08110556
N        9.05007551      24.35528366       9.45493888      -0.77303951       1.92931473       1.48145123      -0.68273158       0.14713777       0.36160444
C        8.95635934      25.57833396      10.39130037      -1.65015663      -0.32382291      -1.24377505       1.09814450       1.38721335      -0.33417142
H        9.14428989      25.32063706      11.43786266       0.31659733      -0.07782824      -0.19292723       0.10403574       0.33218967      -0.00890873
H        7.90651034      25.88039239      10.23204545       0.17673943       0.15535356       0.51623944      -0.09765949       0.17704159      -0.30216120
H        9.55709877      26.37634538       9.94478666       0.41139074      -0.19874006       0.27077723       0.06579799      -0.08345386       0.09329986
C       10.38088190      23.91843586       9.40384332       3.93592362      -0.57631576       1.10091770       0.08130425       0.05040746      -0.08684579
H       10.43459041      22.91161484       9.80053388      -0.00369260      -0.65107838      -0.26868976       0.07348350       0.16315962       0.28485731
H       11.00817369      24.46522004      10.17218473      -0.66124061      -0.10634973      -0.71647017       0.10558906       0.21470639       0.23049913
H       10.95318345      23.99140055       8.45944395      -0.71684596       0.03586614      -0.01251665       0.05837324      -0.01403826       0.19580371
H        8.70830065      24.71916602       8.55654273      -0.49593419      -0.27647973      -0.67951448      -0.04607670      -0.10672742      -0.15716463
H        8.44527222      23.60208783       9.83200272      -0.46016657      -0.03291169      -0.28626977      -0.31408632       0.25591185       0.04650485
N       10.03974163      17.74360600      11.66500555       1.80057656       0.59822841      -0.33964051       0.55966109      -0.34813460       1.02044972
C        9.55559902      18.71674756      10.60171264      -1.79870040       0.13060760       2.21361781       1.05863283       0.96617625       0.13769335
H       10.39034788      18.85874126       9.95447300       0.25274042      -0.16624159      -1.22726718       0.23773995      -0.17954136       0.30037243
H        9.26135285      19.73257972      10.99989584       0.44499888      -0.93395561       0.15799182       0.10799413       0.04708255      -0.01856071
H        8.57978007      18.23165318      10.31870911       1.03887370       0.50632979      -0.92045575       0.01238691       0.05414033       0.12082002
C       10.61985454      16.52674730      10.99696823      -0.15291609      -0.55687532       0.66229142       0.54697134       0.38856380       0.84744678
H       11.55812073      16.76734853      10.46797829      -0.23776193       0.28424946       0.01317549      -0.08693677       0.08473606       0.34407389
H        9.88159002      16.11917875      10.26631134       0.36901996       0.06582468       0.66413856       0.13078335      -0.14861190      -0.06808133
H       10.90301025      15.83899400      11.83641831      -0.40640141       0.07264344      -0.86492601      -0.12403818       0.07380974      -0.20494823
H        9.31293502      17.49582590      12.33942247      -0.84536618      -0.13238520       0.16017601      -0.38227908       0.13923934       0.02680130
H       10.82168749      18.11697328      12.27032709      -0.49903031       0.19135943      -0.50763773      -0.23433380       0.30893949       0.08325117
N       16.81235673      23.78765876       2.86773340       1.19539038       0.85289198      -0.68694039      -0.19393927       0.85498139       0.93790642
C       17.13835419      22.91206539       3.98166622       0.58035341      -1.16399881       1.18406044      -0.10521920       1.37893797       0.26925375
H       17.21486590      23.40843627       4.96588610      -0.27241861       0.30790719      -0.45178319      -0.06711054      -0.10745852      -0.10164141
H       18.10905027      22.43078166       3.76735500       0.06000668       0.34398787       0.05642764      -0.04979659       0.14356980      -0.09329680
H       16.46051022      22.04319464       4.09144037      -0.23411589       0.55026547      -0.29851330       0.04258800      -0.00617483       0.12196629
C       17.45989678      25.21233768       2.91068626      -1.79281428      -0.86846972      -0.46966317       1.38451209      -0.40923642      -0.03855478
H       18.49739308      25.00600803       3.13009472       0.56050858       0.32226853      -0.27004602      -0.21277575      -0.16460863      -0.05729394
H       16.99262665      25.81413298       3.69658060      -0.02058449      -0.32339860       0.28127723      -0.19121979      -0.17492897       0.15912201
H       17.16521715      25.69459810       1.94541883       0.78909012      -0.31703728       0.43067362       0.03111294      -0.17441979       0.17981349
H       15.81152736      23.83052233       2.70287235      -0.68140496       0.18438586      -0.10179081      -0.07875528       0.15693860      -0.17476840
H       17.22941681      23.30727325       2.01890351      -0.55475228       0.31995518       0.15377402       0.18952733      -0.06276961       0.00120666
Pb       6.15862649      20.60224813       7.02894861       0.22895379       0.17299641       0.00632561      -0.93029582       1.01168197       5.55053156
Pb      13.33911324      21.32070174       6.80580977      -0.06134824       0.17155823       0.10347081      -3.47223144       3.32830318       1.85093346
Pb       6.62135053      21.77616226       0.66583645      -0.32203868      -0.11775928      -0.17699934       4.56649383      -0.88829370      -0.66041344
Pb      12.94871004      21.37838478       0.08952041       0.72811791      -0.25088111       0.12817070      -0.06300193       2.56141212      -4.61590315
I        9.32158091      21.14140405       6.70195208      -0.11061729       0.08412354      -0.02583562      -0.84679418       4.07142451       0.81674377
I       16.30433608      21.16482813       7.13602342       0.15656071      -0.23140112       0.02515023       0.95467305       1.62057582       1.96719276
I       12.67582400      18.34146477       6.50445207       0.04923503      -0.41978375      -0.06692453      -0.44613792      -0.45921329      -0.97588259
I       14.11469097      24.69240046       7.07508603      -0.24261897       0.14070955      -0.00948061       2.87333548      -0.51907108      -1.53222960
I       17.03302071      21.17639914       0.39721890       0.06028539      -0.06050202       0.13136042       0.23155107       0.75765123       0.53294328
I        9.74823137      20.81803172      13.97755124       0.11782201       0.02472672      -0.08178959       2.30713984       1.40726105       3.54717861
I       13.57745317      23.63345570      13.98508912       0.13161487       0.09605006      -0.30315805      -0.02492236       0.58063546      -0.13145384
I       12.41097271      17.79710417      -0.04704951      -0.04766363       0.09689092       0.00835560      -1.97931889      -1.54502583      -1.14761852
I       19.85162830      20.56326632      10.52315119      -0.00456282      -0.01428599      -0.14592805       0.62844869      -0.83824616      -1.63787178
I        5.89889325      21.67203464       3.68497399       0.03836156       0.06934750       0.07524276      -1.80278383      -0.75198756      -2.24536273
I       13.26063045      21.35922143       3.27568020       0.02525441      -0.05041312       0.15309436       0.46429633       0.32553760      -2.51526255
I       13.21316386      20.80339868      10.11661953       0.01321838      -0.01132559       0.09073482      -0.20707714       1.12964589       0.32560701
N       17.44549236      16.62892842      17.03550406      -0.91041387       0.21670801       0.90376437      -0.52620027       0.23434444      -0.70982196
C       16.51110525      17.35319447      16.12839022       3.91144582       0.23135315      -1.71483988       0.18023678       0.60541909       0.48376964
H       17.16449105      17.40316102      15.12712583      -1.80876929       0.21459252       1.71630341       0.13478757       0.17049099      -0.05201323
H       16.43788119      18.32893970      16.58423008      -0.61254078       0.51943378      -0.15124504       0.14655334      -0.14322409      -0.23371522
H       15.66626180      16.75604537      16.02339600      -1.86682966      -0.69874650      -0.31254560       0.14234654      -0.11833500      -0.01653453
C       18.67911093      17.38007682      17.23872400       1.12956141       1.47736560       0.89889965      -0.05977282      -1.03475262       0.30412752
H       19.11038201      17.77775462      16.29665003      -0.56002029      -0.10130754       0.12357542       0.01925617      -0.03590315      -0.12244102
H       19.37160629      16.60409623      17.54827365       0.60626784       0.19974739       0.64237964      -0.09776305       0.01533890       0.05626586
H       18.58144892      18.26564392      18.00948252       0.01479187      -1.71084964      -1.25573446       0.13639495      -0.26037548       0.12217851