320
Lattice="25.379715546307263 0.30944321396637403 -0.04692945562897197 0.22105075175000383 25.236061309561418 0.004218471221749382 0.17560441045756198 0.03871770685381049 25.482936099220602" Properties=species:S:1:pos:R:3:forces:R:3:momenta:R:3 energy=-903.1478271484375 stress="0.0006403471925295888 -0.00026682298630476 -4.916956459055654e-05 -0.00026682298630476 0.0004184555145911872 -8.309412805829197e-05 -4.916956459055654e-05 -8.309412805829197e-05 0.0009308268199674785" pbc="T T T"
Cs       9.12415934       9.84467502       3.08404235       0.00228918      -0.08944409      -0.02650388      -1.54928565      -0.66173935      -0.58793589
Cs       3.59332691      16.21045788       9.55281743      -0.09064082      -0.12652779      -0.00808845      -0.78483366       2.04755319       0.27596131
Cs       3.57931345      10.25733582       9.48434524      -0.01666854      -0.08989873       0.03413669      -0.07697308      -0.19224775       2.16719374
Cs       9.34088611      15.72374176       3.10863353      -0.07502456      -0.06572457       0.03382555       1.91731731      -0.21955412      -3.12651259
Pb       0.26766188      12.84089350       6.38833952       0.01393843       0.16592434      -0.14500076      -1.46997484       1.14824091       0.30725933
Pb       6.81995122      12.58790497       6.59901463      -0.48643606       0.17937972      -0.12253290      -1.96980603       4.36030530       0.22118452
Pb       0.17973835      12.34853989      -0.25486426      -0.10939939      -0.08166658       0.34709800      -0.31261305      -1.36409943      -3.02781630
Pb       6.24481303      12.66044006      -0.20224817       0.21022069      -0.06776113       0.32166410       3.31622497      -1.67106755      -2.21085847
I        3.55949344      13.40976294       6.39545996      -0.23221980       0.02682336       0.16574641      -1.80479963       0.06119193      -2.23459985
I        9.71543270      12.19360864       6.15772526       0.46374788      -0.12381743      -0.17666731       6.52465625      -1.98444718      -0.80070856
I        5.98362744       9.52888734       6.31714434       0.03779121      -0.04315127      -0.12575823      -0.10870074      -2.17333974      -0.87455316
I        7.11534009      15.82944318       6.65164598       0.04581544      -0.06933386       0.07022996       0.82370936       0.13531559      -3.75284552
I        9.57966634      12.33118005       0.26770307      -0.01948128      -0.11663493      -0.01367816       0.79919870       1.41698138       0.26109394
I        3.65747025      13.56990199      12.67646676      -0.51320538      -0.02396775      -0.09657279      -2.44228054      -1.92233447       2.14764562
I        7.29768753      16.08040394      12.32834015       0.18482930       0.08515979      -0.10130150      -2.17091339       0.85166932      -0.77869579
I        5.54381955       9.40197838       0.48958443       0.20820692      -0.08277553      -0.13235626       1.20559489       0.27984027      -1.67859774
I       12.27275333      13.27002245       9.50358897       0.28582949       0.04636186      -0.00615628      -0.33842172      -0.36188435       3.48011600
I        0.92825436      12.29506913       2.84567537      -0.22145143      -0.15179749       0.16303146      -0.20757344       0.98176647      -0.61446433
I        6.10923333      13.01662910       3.25003768       0.26933123      -0.13557541      -0.10068095       2.24490277      -0.42589117       3.20527657
I        6.83863754      12.10272720       9.67261192       0.06018216       0.10121680       0.07758889       3.16554199       0.51112636      -0.13817589
Cs       9.01885365       9.23571666      16.11120543       0.05650150      -0.05228740      -0.14272067       0.41297844      -0.93448474       1.55133732
Cs       3.98896819      16.35237487      22.26957885      -0.07423576      -0.04489982      -0.08605858       2.86903578      -2.50429220       2.58062277
Cs       3.38639895      10.24297315      22.47793251      -0.06311906      -0.27808681       0.10283441       0.13468783      -0.33158875       0.93554178
Cs       9.59143781      15.37878053      16.48228694      -0.08926954       0.19368353      -0.25285480       2.18662920       4.74247970       0.62345103
Pb       0.35928111      12.60647886      19.01627173      -0.33978018      -0.14785744       0.03961991      -1.49808388       1.43692733      -1.86315506
Pb       6.57965100      12.44868846      18.75695007      -0.26031988       0.22117742       0.43015234       4.82717299       3.02632544      -2.13065626
Pb       0.27057655      12.52825982      12.51282077       0.08907590       0.34274518       0.09622022      -0.11032099      -4.41484724       0.10787462
Pb       6.61138103      13.18724905      12.77634705       0.20306015      -0.51364152       0.09401062       0.00919852      -2.08440212       1.05254295
I        3.37491087      13.02709641      19.59992328       0.12239247       0.10333488      -0.06280042      -2.76525812       2.20331249       3.14584566
I        9.68050759      12.36613362      18.74533652       0.14279259      -0.20356886       0.06590593       1.53436111      -2.21176242      -1.57878364
I        6.17479935       9.18410719      18.64620096       0.03193552       0.50079498      -0.09637067      -1.72869414      -1.37442820      -1.14794356
I        6.82250664      15.69170174      19.59086717       0.02467256      -0.00927608       0.03109882      -0.71620329      -0.96121932       2.69930917
I        9.80942142      12.25505685      12.98507134      -0.02636146      -0.05969460       0.09460073      -1.32691227      -0.12474471       3.38138180
I        3.34709689      13.29618529      24.77567669      -0.11764757       0.10254339       0.02046636       0.06589569       0.69486234      -1.75499062
I        7.14244184      15.80286984      24.60063270      -0.00010564       0.05181367       0.02868099       2.38023274       1.11966891       0.44270874
I        6.18138047       9.80112329      13.35151355      -0.01264170      -0.03977995       0.11232230      -2.52467208      -4.29567784       1.72021255
I       12.90929859      12.83525626      22.24704450      -0.15361338       0.10451799      -0.11992037      -1.58726992      -1.25318598       0.08082647
I        0.24287274      12.15546344      15.79942668       0.12072053      -0.01301695       0.00339663      -2.13844428       0.10990700       2.04611147
I        6.30182912      13.64105046      16.00847824      -0.08206274      -0.03641509      -0.18806031       1.44383639      -0.44716428       1.55849618
I        6.39266486      11.92085325      22.43040101       0.56490211       0.11212351      -0.43681989      -1.35259176       1.90483493       0.54992245
Cs      15.70176158      15.94892420       3.38475683      -0.07930300      -0.05844781       0.14182973      -2.57173656       0.86978197      -1.21646916
Cs      10.44861413      23.10562790       9.48928204      -0.11232639      -0.31720727      -0.14013481       0.45380755       0.27603702      -0.54589077
Cs       9.80922822      15.93452536       9.31410774      -0.03098710       0.19992950      -0.01712308       0.69892634      -1.36110867       0.77744967
Cs      15.72161968      21.58950588       1.88035816      -0.04290766       0.00476956       0.18721308      -0.32197911       0.86671092      -2.02414736
Pb       6.17020082      18.86435711       6.08499096       0.24191658      -0.10553843       0.09132710       0.01590922      -2.32466231       0.30971093
Pb      13.23479484      19.06874971       6.38517447      -0.24172049      -0.25597477      -0.19688650      -1.90633911       2.67166841       0.17565697
Pb       6.26661010      18.81401063      -0.21033822       0.02857815       0.26802485       0.19162318      -0.88762962      -4.75292426      -0.01017752
Pb      12.52682466      18.71631551      -0.10292382      -0.04067384       0.08852756       0.02001703       0.18266445       1.33422655      -3.38870883
I       10.11747211      19.10838646       6.88022640      -0.24480701       0.16622732      -0.07229730      -2.27924942       1.52141895      -2.21186548
I       16.27478953      18.04687148       6.71082696      -0.07136723      -0.11364671      -0.01779736       4.03338455       1.18082316      -0.69291902
I       12.17681181      15.68800420       5.52662920       0.21686703      -0.16700416       0.14608187      -1.86135935       0.51117142      -1.26358953
I       13.71844145      22.01128377       6.42768294       0.04619280       0.34755193       0.15847281       0.58959977      -1.83624735      -0.00011969
I       15.76140671      17.88633743       0.29816205      -0.07663815       0.11933321      -0.10926304      -2.70705383      -0.09165768       1.04572012
I        9.56838634      19.78529045      11.98162252       0.15929005      -0.00944136      -0.14364764       1.28887425      -1.70869497       2.80118878
I       13.35167599      22.44469024      12.03141733       0.06274831      -0.24385435       0.01080815      -1.50864375       0.20248013       0.46574524
I       12.01350597      15.61047285       0.50177556       0.02107807       0.18234037      -0.12538400       0.82987476      -0.04915763       1.01465372
I       19.59293149      19.46726058       9.27082843      -0.34187340       0.26259906       0.17303157       1.10535951       0.20441707       0.67208639
I        6.98104659      18.58871379       3.05430682      -0.05430936      -0.06641889      -0.07331678      -0.21621662      -1.00466660       2.72860643
I       12.43713046      19.01033693       3.08289193       0.12026184       0.15060746      -0.08009077       0.12539103      -2.95919219      -1.71859736
I       13.08065834      18.40518717       9.35577515       0.01418420       0.02303087       0.46880033      -0.55443283       0.15070665       1.87139818
Cs      15.65028888      15.19586429      15.77955566       0.06159035       0.15655174      -0.11610347       2.68445372      -1.03755932       0.68151016
Cs      10.02363615      22.23366645      22.60109242       0.04722333       0.05925867      -0.21689462      -0.03128033       1.07434319       2.69694814
Cs       9.90922725      15.91064969      21.98110948      -0.01744115      -0.02839297       0.01234135      -2.66674919       1.89537387       1.09339526
Cs      15.75791922      22.26035866      16.25839338      -0.12288489      -0.03542827      -0.08307809      -1.28699186      -0.75831642       0.44486654
Pb       6.19584049      19.38509452      19.01752440       0.13940743      -0.25554699      -0.11010748       1.74117738       0.33369750      -3.35163656
Pb      12.72360309      19.13386523      19.01797233      -0.08647074      -0.07678558      -0.10923474      -2.06473628       2.06818760       1.93771362
Pb       6.54093156      19.12316737      12.40988892      -0.04958601       0.07065938       0.43294426       0.01359144      -2.58146054      -0.93044555
Pb      12.70280057      19.05067519      12.82416776      -0.04176661       0.03851991      -0.11076757      -0.66908621      -0.37212782       0.76897388
I        9.54847882      18.93380759      19.29836692      -0.00703698       0.09835532      -0.05154514      -2.42577740      -3.91746062       1.64303498
I       16.14375771      18.26904555      18.28654021      -0.29018896       0.01069189      -0.07717364       0.19565553      -0.70650848       1.44114953
I       12.49613535      16.02919748      18.46949620       0.12998785      -0.34670941       0.04486598       4.90264122       0.65749128       2.24852366
I       13.38846841      22.06401171      19.66426386       0.05607741       0.27336344       0.03388307       0.50196341       1.63357063       0.92270437
I       15.85059418      18.47725109      13.17261045      -0.05402375       0.01681838       0.01051195      -1.56835222       2.63278962      -1.02723898
I        9.73283235      19.95981514      25.46444474      -0.10056690      -0.36491809      -0.10105891       0.95345987       2.41951060      -0.47899255
I       13.25123521      22.06878821      24.60897743       0.20229948       0.09966084       0.12718317      -0.39056173      -1.21545895      -1.85097391
I       12.42462144      15.92202320      13.47417509      -0.04741314       0.09237673       0.02898746       0.60122351       0.06062514       0.38185679
I       17.74138823      19.70726379      21.91769434       0.08989661      -0.12928120       0.16909739      -0.50588322       1.22121921       2.78623265
I        6.51770005      19.69023409      15.78229860       0.00945361      -0.29061792       0.22844490      -0.03755550       1.91563135      -1.33822498
I       11.94637897      20.01411820      15.64384885       0.49413973      -0.31672693       0.23337260      -1.39763999       1.01078345       0.29247484
I       12.79769410      18.43301201      22.11659227       0.03878692      -0.07511580       0.02725734       2.22034915      -0.87774171       1.97829560
Cs       9.50484283      21.58841277       3.20552812      -0.00021337       0.11848850       0.22453788      -1.36671177       2.95466660       0.44454131
Cs       4.18294403       3.30366800       9.40563434      -0.30688183      -0.18258482       0.00981840       1.12127224      -0.31127930       2.32879327
Cs       3.46346492      22.08133528       9.59540969      -0.02665426       0.17560948       0.07845831      -3.45535965      -0.47231565      -3.09598356
Cs       8.76542883       2.80394206       3.12740041       0.13409138      -0.08166451       0.01995420       0.91855406       2.82661125       1.36086479
Pb       0.27482629      -0.07743406       6.45496872      -0.26933939       0.31744708       0.02915089       1.23185000       5.09450325       1.76699995
Pb       6.50521131       0.11134645       6.35107862       0.10897633      -0.06630236      -0.19145533      -0.03371487       0.50688055       0.85863298
Pb      -0.16718042      -0.01869134       0.14496735       0.09131705      -0.23639488      -0.14638951       1.63303675       2.32899626       1.24285439
Pb       5.98048229      -0.04761866      -0.00607570       0.09495060      -0.37178717       0.00237260      -2.10192449       1.03887623      -2.13970246
I        3.34960014       0.35616293       6.68474711       0.04195582       0.12665596       0.10579799      -1.39648031       0.68617015       1.72515078
I        9.92161262      24.65693743       5.65800166      -0.08382920      -0.04783393       0.05673895       0.98109255      -3.26387714       0.30682505
I        6.12915876      21.82246162       5.55963095       0.03519204       0.41819388      -0.00372480       2.56575276      -2.43135916      -1.44266898
I        7.16178482       3.09531794       7.19343464       0.08980510       0.05626899      -0.17608295      -0.84381211      -0.82075904       1.74368731
I        9.73836481      24.40606693       0.57995538      -0.04017861       0.11768509      -0.02958508       0.77056887      -1.00902809      -0.52372498
I        3.03174031       0.66623924      12.28544161      -0.06334384       0.06907572      -0.04884815      -0.25249313       0.70970520      -1.68602647
I        7.30169556       3.57770907      11.97803894      -0.08715771      -0.59254002       0.00095835       0.45875517      -0.01153974      -0.94970179
I        5.22548966      21.94274896       0.49402024       0.21344301       0.03335059      -0.12304134       4.11435712      -2.02362426       0.37381354
I       12.58302407       0.62320101       9.40131733       0.06194358       0.16547082       0.12147540       1.48498115      -0.87660496      -1.55080717
I        0.88170394      25.17507045       3.30031157      -0.02325077      -0.14270531      -0.01979967      -1.44684760      -0.92632464       2.37424298
I        5.71541888       0.47526874       3.06226218       0.06077127       0.00485566      -0.03549077       0.12879836      -0.06501578      -0.89228480
I        6.81280091      24.28735929       9.15577236       0.00279069       0.03922423       0.34056805       2.25516592       1.41413974       0.49123925
Cs       9.26870714      21.99616411      15.05465399      -0.30716968       0.34607292       0.14019380       0.73946233      -1.15586643       2.68649319
Cs       3.98636809       3.43592523      22.40683305      -0.09704964      -0.02074088      -0.00148201       0.12746396       3.48839106      -1.12894730
Cs       3.68175299      22.45173269      21.96297344      -0.12728192      -0.01814411       0.17284664       3.26996695      -1.91884897      -2.61901852
Cs       8.83555765       2.62874377      16.14675115       0.16749682       0.09312378      -0.03801180       0.17694673      -2.77899080       1.16979122
Pb       0.20611341       0.19236130      19.25405990      -0.03559328      -0.00750280      -0.06451304      -3.79378422      -1.61976758       0.64484917
Pb       6.41158417       0.05484093      18.93217892       0.02182891      -0.09418170       0.11492152       0.23405588       1.43047554       0.32803749
Pb      -0.22069270       0.14085733      13.16866952       0.11057619       0.01957154      -0.10130377       2.55169299       2.51369599      -0.31438812
Pb       6.24930028       0.40667484      12.41878661      -0.27475967      -0.14587693       0.05959858      -0.70855528      -3.03526194       1.99622403
I        3.32039572       1.31399701      19.26436437       0.02409544      -0.14424585       0.08635468      -0.60949548      -1.68087587       2.78952648
I        9.69550023      23.77758971      18.55729266      -0.04974738       0.28904670       0.02652150       1.77315704      -0.03064638       0.43160695
I        5.38364089      22.28104348      18.61746533      -0.08241220       0.12227892      -0.03524145       1.12933207      -0.45282654      -2.88529954
I        6.98924274       3.12754641      19.90160703       0.19663690      -0.08969498      -0.00894681      -1.58219432       2.86889740      -0.68761264
I        9.47725906      24.91789060      12.76877561       0.18829689       0.04735989       0.02121451      -1.33935028       2.87423479       1.56183423
I        3.25667262       0.75622527      25.12683096      -0.04363593      -0.03165083      -0.07912669      -4.81614406       0.87879262      -0.89469131
I        7.24801211       2.79271459      24.86517161      -0.07684084       0.28339766       0.05896196      -1.99337005       1.63411118      -0.48647618
I        5.89419668      22.29603775      12.58374096      -0.03031695       0.23916537       0.07892281      -0.37169601       1.34797506      -3.30135332
I       12.78831895       1.11589539      22.23232021      -0.01157516      -0.24076151       0.05902731       1.57464773       1.01458131      -1.34061083
I        1.35934179      24.93413289      16.02554935      -0.24881914       0.18572208      -0.01812264      -3.40801356       2.00750447       2.93474493
I        5.87094824       0.41685093      15.79440096       0.04042386       0.04783795      -0.25801307      -2.56748050      -1.69592003       0.66941217
I        6.99112727      24.27355586      21.93260134      -0.07946574       0.26771269       0.21813623       2.90667551       0.08130476       0.21720245
Cs      15.28218813       2.84079469       3.07835171       0.05670148       0.08913829      -0.07260457      -1.37880462       1.22046280       1.53215621
Cs      10.29617476      10.14533056       9.39404123      -0.06739639      -0.22949435       0.04251031      -2.75781645       1.53507390      -5.54461560
Cs      10.28016832       3.82315879       9.59840951      -0.02341266      -0.04014231      -0.02105466       3.02066552       0.63009012      -1.29247347
Cs      15.60247405       8.47624153       3.27449778       0.07922070       0.17733000      -0.10666419      -1.26252195      -2.41585903       0.80376324
Pb       6.79745334       6.46331021       6.11567518      -0.05340877      -0.02835620       0.37735310       1.30769976      -0.47373003       0.45343634
Pb      13.15944357       6.28134500       6.32672398      -0.11443228      -0.11309857      -0.02649572       1.43014309      -1.09784928       0.35108418
Pb       6.29118034       6.17330771      -0.10868877       0.24311969       0.26277166      -0.03065592      -0.53273015       0.56670238      -1.29513257
Pb      12.65738963       6.17192816      -0.00673631      -0.08733239       0.17300805       0.00307482      -3.16980139      -3.42047072       4.40649385
I        9.76755796       7.31094842       5.96482803       0.03701593       0.00637674       0.38153196       1.25899337      -0.48730610       1.80409066
I       16.25178042       5.70327502       5.82391910      -0.17142605      -0.05523358       0.04870370       4.06108204       0.39097954       0.22404016
I       11.84296469       3.18147191       5.37322905       0.14040146      -0.09317817       0.25382530       0.23773023       2.34553609      -1.09060672
I       13.48862811       9.35783755       6.39399079       0.04589244       0.20376380       0.16363777       0.96293640      -0.21721880      -4.41775032
I       15.87246432       5.59756546       0.28882282      -0.13589610      -0.15045142       0.08527025       1.50588481       1.32172250      -1.96913180
I        9.46447607       6.99641095      11.83176307       0.32336424       0.19018887      -0.03117806      -0.59226433      -0.99241126       2.00401566
I       13.37973437       9.66742487      11.83984471       0.05425064      -0.02538563      -0.06853529      -1.83124126       1.72557212       0.53783964
I       11.78810399       3.13273337       0.73512092       0.05190966      -0.09861331      -0.07958513       0.16120810      -0.18993795      -2.72244519
I       18.55835715       6.71404303       9.50378430      -0.10991080       0.06246482       0.07417582      -1.73778775       1.99938034       2.34878129
I        7.21044991       6.19670178       3.15535043      -0.13008970       0.00053579      -0.31246606      -1.40478441      -0.55892326      -0.59382396
I       12.19124423       6.51888271       3.26555999       0.17169359       0.13290408      -0.37797371      -2.02664898      -2.18380149      -2.77089464
I       13.45856543       5.89449923       9.52414006      -0.02815762      -0.03702195      -0.07094971      -0.09979693       3.09139909       2.03740538
Cs      15.18808371       3.20788075      16.20348840      -0.06539489      -0.06004071      -0.04611594      -3.48578108      -3.91078979      -0.36404471
Cs      10.49031415       9.50806872      22.03162782      -0.05704045       0.11195889       0.14269994      -1.10132100       2.15970542      -1.35830925
Cs      10.02284386       3.51284855      22.66777769      -0.01127439       0.13245286      -0.19149485      -3.87961591      -4.81856594      -0.58501733
Cs      16.02760888       9.30666984      15.77219260      -0.15118648      -0.10655057      -0.24397769       1.66370568      -1.27379371      -1.27472709
Pb       6.28144504       6.23295524      19.21884941       0.09469296      -0.21226557      -0.03806518       0.65524262       0.25297945      -0.68270471
Pb      13.12254509       6.64961698      19.13462380      -0.34704845      -0.34694207      -0.05486310      -1.95752825       2.14609464       1.06068844
Pb       6.35741656       6.41181274      12.41623381       0.08596120       0.43008859       0.14145806       0.25758208      -4.53468845       0.37603214
Pb      12.70114729       6.69524514      12.60068081      -0.03429742      -0.10628761       0.04748301      -2.62261363       1.17283998       2.83252946
I        9.84306008       6.89962205      19.51594243      -0.14817564      -0.01446773      -0.08217074      -0.91507309      -0.39721963       0.06042039
I       15.95367809       5.55226455      18.85457140       0.11042933       0.18763049       0.04631375      -1.66493886      -0.90520877      -0.27984889
I       11.82378403       3.31873127      18.54384920       0.02964459      -0.14365324      -0.02751735       2.44485586       1.86818712      -1.42724036
I       13.60270493       9.60666909      19.64319272       0.05766269       0.08484254      -0.03311381       1.23849089       3.11783720      -0.07823370
I       15.99291812       6.05435969      13.36805293      -0.17218618       0.05460143       0.08399041       1.36571365       2.91181858       1.28666736
I        9.66523821       7.01332541      24.71792205       0.10508349      -0.04477173       0.06394683       1.32739260       0.08554721       0.60896430
I       13.65044248       9.39993474      25.09233478      -0.20804074      -0.06523813       0.09654957       0.24083338       0.89244929       1.20920974
I       11.99415583       3.40820455      13.32377123      -0.11888236       0.03875171      -0.02944676      -0.11651630      -1.02465666       0.01220618
I       18.86655213       6.88695436      22.46372327      -0.10822634      -0.06706743      -0.15853271       1.07215940      -1.39419768       0.63994787
I        6.52846123       5.70743504      15.83740191       0.12400242       0.02225052       0.11787036      -0.20410907       1.76920879      -0.33650680
I       12.47199848       7.29740471      15.65285838      -0.00382929       0.02800085       0.23943600      -1.41822810       0.91535600       0.76095784
I       13.25792058       5.65884827      22.26628297      -0.03396538       0.15038676      -0.01283893       3.34591158       2.54908260       1.27522927
Cs      21.68452612       9.22190676       3.28821283       0.17037813       0.25795835      -0.16235674      -3.03707793      -0.49903684       2.36895055
Cs      15.86901147      16.07500582      10.14223653       0.08020700      -0.07562099      -0.06893851      -1.94444248      -0.58537553      -0.83869118
Cs      16.67769718      10.40661966       9.13739252      -0.13016184      -0.21686696       0.08438355      -1.30516788       0.16084456      -0.57956515
Cs      22.16343750      15.39282104       2.18140619       0.19158737       0.03791660       0.23274059       2.11527237       2.64047163       3.04197971
Pb      13.22482543      12.73268006       6.43294223      -0.35388284       0.06418390      -0.23702157      -0.92916439       0.80131701      -1.00574143
Pb      19.43305831      13.43814840       6.21432947      -0.10649190      -0.80454487      -0.32585278      -0.10489516       1.65612525       1.92544709
Pb      12.91030775      12.65449700       0.34532655      -0.07698299      -0.25776428      -0.10544867      -2.86710430       3.01057746       1.34929731
Pb      18.93809933      12.63925208      -0.06863057       0.19026431      -0.11770462       0.00820317      -1.14031352      -1.07931882      -5.15804818
I       16.13394695      13.24626571       6.92166111       0.27174666       0.34321233       0.04461263      -1.34103554       1.35209680      -0.63981509
I       22.66522051      12.08728084       5.53391339      -0.18305940       0.17805034       0.09653343       3.16847195      -1.66282076      -0.44461969
I       18.61086183       9.83955753       5.89569349       0.08180259      -0.09879866       0.00285479      -1.49867045       1.81846008       0.11645227
I       20.31059579      16.13798591       6.50147199       0.09482295       0.39958412      -0.17037612       0.29371155      -0.84695020      -2.20869934
I       22.07291850      11.70651789       0.44828392       0.07792909       0.13819591      -0.00920308      -1.33550680       0.60627513       2.15741230
I       16.09106400      12.99515441      12.49527963       0.14228460       0.15901254      -0.09191697      -0.29979784      -2.32784495       1.67995002
I       19.71668956      16.22388239      12.68820504      -0.06711422      -0.31632005      -0.23027332      -3.15892031       0.62873703       1.89280751
I       17.95807445       9.46217147      -0.10581647       0.09055243       0.19886710       0.31559396       2.61193044       0.12591950       0.68925162
I       25.64248197      14.12336988       9.28702600      -0.01647425      -0.13137085      -0.01890680       0.37155407       1.39774463       2.19923490
I       14.07655971      12.36189029       3.22441393      -0.10554056      -0.04931358       0.04052048       3.70150109       1.34168240      -0.06635610
I       18.85427558      13.97373795       2.93374827      -0.07003478      -0.22748937       0.14838213       0.56480972      -0.20679960       1.20832441
I       19.97445532      12.72397451       9.21864069       0.01166518       0.02531527      -0.00437251       0.97896436      -1.51685802       0.20432640
Cs      21.72777916       9.87510117      15.28034328       0.19090553       0.27970618       0.10656109      -1.68894376       1.54406134       1.08983983
Cs      15.69867855      15.83992131      22.14122861       0.03807897       0.12424115      -0.03205879      -2.79036218      -3.37519862       2.02943541
Cs      16.07009822      10.30364002      22.36540076       0.09294325      -0.06374328      -0.09398966       0.31000301      -0.68319614      -1.02152858
Cs      22.25880238      15.33630360      15.41867958       0.14614431       0.24972865       0.14497635      -2.31901188       0.00125153       1.12566017
Pb      12.77059305      12.56537056      18.92268017       0.26870657       0.19552731       0.03104903      -0.36856231       2.21547467      -0.97422919
Pb      19.12960550      13.10274290      19.19088070       0.41341532      -0.39194362      -0.11112504       2.53223373       0.52900697      -0.01465118
Pb      12.93053466      12.81935514      12.75412525      -0.17524344      -0.13545395      -0.03667468      -2.55470662      -0.22845560      -1.24067920
Pb      19.39087988      12.79744887      12.21422054      -0.03246910       0.28173487       0.27477231      -0.90820451      -1.67518854       3.71733419
I       16.20951158      13.68702434      19.04650219      -0.40055745      -0.11915373       0.14069479      -0.42863386      -0.22429693       1.47265264