560
Lattice="25.981897448151372 0.005385205214117719 -0.1015673522651021 0.06974108275707809 25.860717332118085 -0.015550604281986177 -0.12163008211302495 0.021576767042232565 26.005117344930056" Properties=species:S:1:pos:R:3:forces:R:3:momenta:R:3 energy=-2166.2255859375 stress="0.0017342800274491308 -1.9350114598637447e-05 -0.00016031492850743234 -1.9350114598637447e-05 0.0006748455343768001 -0.0005028921877965331 -0.00016031492850743234 -0.0005028921877965331 0.0006148609681986272" pbc="T T T"
Cs       9.25744724       9.91737989       3.03195206       0.28124412      -0.11524897       0.17516778       2.65908521       1.74651499       2.39651326
N        3.53502429      15.58766422      10.48447330       1.14651465      -0.24440402      -0.10052358       1.37392567      -0.22935388      -0.86274436
C        4.28835810      16.85452474      10.21247573       0.88866276      -0.11205554       0.35706979       0.47090880      -0.19624212      -0.14195205
H        4.96284275      17.15462342      11.07385620      -0.57290988      -0.64557063      -0.77871181       0.16801771       0.21040239      -0.02957885
H        3.56079713      17.65180802      10.10312766      -0.23977396       0.19640206      -0.40325912       0.25189731      -0.18626125      -0.29841073
H        4.88791325      16.64167802       9.29171976      -0.40384133       0.51426788       0.52095464      -0.30484441      -0.01387455      -0.10355464
C        2.49810976      15.28364834       9.42838023       1.06267520       0.00777656      -1.35580402       1.01574365       0.17176986      -0.64878181
H        2.45364120      14.21075473       9.35989087      -0.23179509      -0.73255669      -0.07733112       0.28923149      -0.07573171      -0.01714300
H        2.70890229      15.66331819       8.35746530       0.31250514      -0.18253979       1.69119575       0.16520658       0.20574551      -0.09230318
H        1.55074700      15.66763328       9.72964824      -0.85828005       0.50284623       0.42010328       0.29553788      -0.02718403       0.10721218
H        3.10735486      15.60158471      11.42740091      -0.16647330       0.10032451       0.00434285      -0.02140148       0.12215879       0.17737749
H        4.27589216      14.80823314      10.57423673      -0.94402526       0.50340866      -0.44616104      -0.12841445       0.01113728      -0.27090139
Cs       2.79861859       9.31671691       9.84363734       0.15409797       0.03454828       0.05557169       0.56814190      -0.33976994      -0.08614631
N       10.16232193      16.55457787       4.43511577       0.93242417       0.73054577       1.77732303      -0.65224363      -0.39501394      -0.15923354
C       10.00550336      17.78696255       3.61369229       0.18194002       1.04666491       0.64169323       1.05201547       0.58637228      -0.27910472
H        9.17483434      17.68585392       2.93861969      -0.20045913      -0.48910831      -0.87172369       0.01809721      -0.05722030       0.26747816
H       10.99384910      18.06886545       3.16802561      -0.83641640      -0.27752633      -0.04573808       0.28641725      -0.28591413       0.01381721
H        9.66253124      18.60579661       4.30782696       0.59163211      -0.47288204      -0.35893677      -0.10764976       0.09492757      -0.02580986
C       10.05973088      15.25102300       3.74979179      -2.21558936      -0.77722433      -0.81523605       0.07362767       0.10852489       0.55351046
H       10.31981790      14.37226739       4.38125886       0.37987346       0.67862511      -0.21160554      -0.01129585       0.07486243      -0.10690608
H       10.52143998      15.29059082       2.75888687       0.52470529      -0.02345579       0.20407349       0.20786509       0.15163113       0.02437712
H        8.94851861      15.08710462       3.52258675       1.12744302       0.26859944       0.23677908       0.09133218       0.00111363       0.27565081
H        9.40664300      16.58760229       5.20208700       0.73843597      -0.20070961      -0.52614751      -0.19667737       0.24915107       0.04783950
H       11.12653740      16.68967648       4.91859102      -1.24131989      -0.70018954      -0.23326451      -0.04210850       0.14229269      -0.21340381
Pb      -0.24243900      13.06812708       6.46023518       0.13594791      -0.28647383       0.28842293      -1.02343488      -3.38612196       0.84377412
Pb       6.19340207      12.61705759       6.37169658       0.05760717       0.32513526       0.15622978       1.61172275       0.23173211      -1.03203109
Pb      -0.40977448      12.90665445       0.05626944       0.02773014       0.03381861       0.07056423      -2.37870476       1.33611047      -0.44727811
Pb       6.01946052      12.88947301      -0.05227466       0.15196735      -0.01218103       0.02453532       1.63520497       0.95022728       0.85594342
I        3.01290093      12.73132829       5.84767630       0.15132147       0.28807024       0.23583195       0.88709502       2.56026191      -0.00609263
I        9.59847686      12.59844451       6.81420283       0.05182175      -0.10899742      -0.00386745       0.68680615      -1.05745215       2.33955752
I        5.76068072       9.60916676       6.68293383      -0.04268439      -0.12068425       0.11008041      -2.62366971      -0.33070328      -1.36417837
I        7.07909482      16.14257252       6.35458393      -0.23931177       0.07316685      -0.11456022      -0.20742106      -1.32217409       0.15695255
I        9.57034061      12.37875062      -0.01435402      -0.16652080       0.03906933      -0.08135463      -1.19606895       1.42182758       0.43692015
I        3.19168567      13.56721324      13.53477525      -0.56484698       0.06767959       0.01930156       0.41204779       2.78853440       3.47234717
I        6.62389175      15.99547438      13.37617405      -0.14555288       0.03426096      -0.10994697      -0.65920563      -1.72329680      -0.45163397
I        5.00334079       9.85006341      -0.07480940       0.30441343       0.08038848       0.24163508      -2.38252715      -1.13091338       3.42479421
I       13.40456167      13.13132149       9.88879207      -0.08510200      -0.24416092       0.07082744       2.15716080      -0.29760232      -1.03047324
I       -0.31579802      12.78121408       3.46053262      -0.05694303      -0.13888199      -0.45208505       2.47704050      -4.42403437       1.47156022
I        6.75226306      12.32178410       3.36185176      -0.35057607       0.23231745      -0.34935692       3.76101958       0.69843845       2.38284643
I        5.82848597      12.70785422       9.65226065      -0.11573618      -0.01673197       0.17069111      -0.53690416      -4.84069542       0.34326025
Cs       9.84978276       9.82652931      16.33715818      -0.01177033      -0.02238688      -0.09649963       0.73007348      -2.99029324      -4.04866204
Cs       3.73801519      15.52586164      22.63189649      -0.05128604       0.19484936      -0.03982678      -0.70252431      -2.74209788       0.38945209
Cs       2.69582453       9.89211178      23.21127802      -0.14324098       0.00648259      -0.28233015       3.61579425      -0.33392509      -0.09468997
N        8.73164133      16.23765962      15.96348975       0.76849192       1.05072067      -0.72136621       0.91625658       0.55081199       0.24476156
C        9.73295064      15.18591691      15.98926916       1.10325629      -1.40555365       0.12710919       0.79812295       0.90850419      -0.43050992
H       10.60490902      15.36021670      15.25371007      -1.22466586       0.15458081       0.95425162      -0.01542275       0.02433746       0.16954172
H        9.27965242      14.25250475      15.70854204      -0.36627971      -0.63036036      -0.31908874       0.13507515      -0.06307458       0.44824432
H       10.10951345      15.02891358      17.01732310       0.09992904       0.30805034      -0.28533449       0.04826373      -0.03275268      -0.11695041
C        9.54591776      17.50151531      16.11948075      -0.13697946      -0.42855409       0.05483407      -0.16105339      -1.37071688      -0.19239097
H       10.33268994      17.13791588      16.81566612      -0.06471150       1.11728840      -0.37940875       0.22854283      -0.02516077       0.24766354
H        9.00040423      18.38340931      16.50563112      -0.09647065      -0.51712359      -0.01076051       0.11982621       0.28578006      -0.01793262
H        9.92518815      17.73031523      15.11042528       0.31133608       0.02968282       0.33264588       0.13840260       0.31165555       0.06778026
H        7.99351878      16.18871448      16.66652512      -0.08741805      -0.26849683       0.42208446       0.11127644       0.13324635      -0.03265005
H        8.24573752      16.13528239      15.02597101      -0.18736445       0.57450463       0.06623034       0.06636212       0.05697955       0.02782836
Pb       0.12679175      12.59662283      19.58931096      -0.11966908       0.22007651       0.04901186      -4.46772547       1.66301482       0.16955439
Pb       6.48806653      12.66178684      19.49925442       0.01803530       0.00129247      -0.14380129      -0.59902789       3.20653828      -3.09180059
Pb      -0.13070050      12.89603451      13.15224936      -0.01022266       0.12131154       0.00641046      -3.07565922       2.43455141      -1.59394444
Pb       5.94019591      12.81098953      12.89519497       0.55494049      -0.24496553       0.02459941      -0.17942548       1.17699157       0.04803481
I        3.28825373      13.11589416      19.41962465      -0.11802683       0.14938587       0.12427442      -0.26056896       1.24923410      -2.09195793
I        9.68492936      12.27852867      19.14048145      -0.06475203       0.06892056       0.18488291       3.30008356       0.66504331      -2.08686434
I        5.40938713       9.32325742      19.78627152       0.17987959       0.33099531       0.21829489       2.47810413       1.73945747      -2.62874648
I        6.58606926      15.96555449      19.76880642      -0.01521095      -0.02546597      -0.04498965       0.40806087       0.83113667       0.79133221
I        9.39863367      12.13857668      13.01009395       0.09610784       0.03929893       0.03602527      -1.28311669       0.49724925       1.54614804
I        2.80489211      13.76286456      26.06162381       0.21517489      -0.03000093       0.04684645       4.38476372       0.79907244       2.77928048
I        7.09742139      16.34654707      26.26427874      -0.05010628      -0.49428594      -0.14211351       0.14112408      -0.41782261       0.77747588
I        5.24801019       9.61407734      12.96632267       0.03761431      -0.19057619      -0.01235418       1.37103659       1.65586573      -0.46245326
I       12.49056791      12.64438703      22.87492599      -0.01508296       0.04038611      -0.07062525      -0.32093561      -3.04234513      -0.59789455
I        0.29008077      13.31115754      16.57500040      -0.14614825       0.01309516      -0.22917318       1.26912763      -1.06845415       1.49207835
I        6.16637799      12.05414832      16.30843480       0.06849316       0.03224607       0.00484711       0.78031406      -3.88985119       0.60110888
I        6.17167977      12.63668187      22.66976643       0.04945025       0.02435199       0.32369351      -1.27745360      -1.67256353      -2.04356917
N       15.48612615      16.49942559       3.23870587       0.46890583       0.09462916       1.57150238      -1.51636649      -0.45985076       0.02778055
C       14.56394557      15.34454891       2.96124087      -0.10636599       0.54850214       2.32378249       0.07720559      -0.65130088      -0.19888443
H       13.53839051      15.72480927       3.05022786      -0.08327295      -0.01704331       0.17863026      -0.14570542       0.36379475      -0.14044229
H       14.77908964      14.65492696       3.85681553      -0.41447461       0.17435688      -1.65052999      -0.07113663      -0.01077546       0.34291955
H       14.66595430      15.00574869       1.95257235       0.58780264      -0.68740038      -0.62232155       0.16363236       0.17044392       0.11042634
C       16.95873287      16.12547588       3.20015991      -1.26215045      -1.60126059      -0.75918962      -0.17315152       0.44510047       0.42817808
H       17.66703193      16.91399379       3.10142123       0.23644688       1.16646029      -0.19474960      -0.27608530      -0.03107072       0.06712995
H       16.89121989      15.52221052       2.27967918       1.14836342      -0.25002253       0.31391211      -0.02527794      -0.13099755      -0.11655064
H       17.22132969      15.54565684       4.11209434      -0.31567125       0.00134071      -0.55947060      -0.11695290       0.17488311      -0.35057814
H       15.33387424      16.74400388       4.23814276      -0.25561540       0.43421637      -0.51268041       0.08861480       0.12567289      -0.07553993
H       15.25863446      17.33072482       2.66791846       0.07640199       0.22463845      -0.04608135       0.05200350      -0.09474193       0.04170898
Cs       9.68678252      22.83045966       9.47015621       0.01038478      -0.08244791       0.08680922      -1.58366802      -3.72269560      -0.10484176
N       10.01361870      16.20096978       9.98604453      -1.29004927       2.01704309       0.24832752      -0.00031119       0.14987685      -0.84927315
C        8.63330979      15.60882449       9.83599603      -0.65646970      -1.12672916      -0.66631475       0.22331996       0.17105059      -0.31201181
H        7.82426893      15.92402638      10.59854301       1.53707072       0.01558331      -0.86050141      -0.09538116      -0.18775923       0.20981613
H        8.76208431      14.49251677       9.92566330      -0.22780676       0.82688273      -0.11434414       0.04503292      -0.07167586      -0.09808790
H        8.27899215      15.84847218       8.74022293       0.52591050      -0.30500423       1.82007395       0.05912572      -0.22028075       0.02341855
C        9.86423181      17.73016262       9.79523547      -0.32315553      -1.54029950      -1.27596160      -0.03922108      -0.18324271      -0.00333458
H        9.61128587      17.91952582       8.72830882       0.00603038      -0.23405890       0.46072091       0.05343826      -0.19065535       0.08118982
H       10.80541725      18.17268242       9.99881274       0.96410921       0.61183540       0.43321249       0.07208271       0.19704644      -0.00791033
H        9.05235531      18.08577217      10.41316950      -0.18150308       0.09123605       0.44817086       0.13827473       0.06229439       0.08013969
H       10.59678034      15.83679377       9.22704042       0.32164047      -0.11407362       0.01231912      -0.10429545       0.02272264      -0.33336490
H       10.52408570      16.09262911      10.91287134      -0.46292483      -0.42001190      -0.36739470       0.18664246       0.05870278      -0.20783935
Cs      16.26490125      23.22394507       3.05236320      -0.01331350      -0.04550675       0.04443716       2.91332146       3.86855212      -0.36131351
Pb       6.05159767      19.25532241       6.48080300       0.63306235       0.07360333       0.20935497      -3.20285113      -0.73862006      -2.20911394
Pb      13.02097961      19.36404457       6.60578396       0.31154397       0.08351822       0.01936957      -0.05177411      -0.70433005       5.51422518
Pb       6.71908168      19.21623524       0.11237183      -0.20250713       0.29228992      -0.19029365      -1.58434880      -0.17955215      -3.45489323
Pb      13.38494712      19.28381633       0.11193901      -0.09925976      -0.41731528      -0.23118771       0.22920962       5.51099078       1.53147849
I       10.03313249      19.91711246       6.62440475      -0.15157781       0.21533308       0.10084102       0.26263040       0.52682539      -1.49518582
I       16.42988771      19.18263921       6.19194780       0.13823309       0.03345781      -0.10933927       0.43566700      -1.54660679       2.03442033
I       13.04812187      15.71163991       6.71623800      -0.19434138       0.55271650      -0.19999503       0.05060337       1.55992410      -0.74318798
I       14.09437641      22.29391447       6.50298094      -0.09742702       0.36318493      -0.11146108      -2.69930854       1.26629625       0.64218516
I       16.66221933      18.71929039       0.21836661      -0.06186449      -0.07780819       0.01063029      -2.94871796      -0.63865226       3.37983614
I        9.65074230      20.51279710      12.91725905      -0.11483538      -0.00161664       0.02215705      -2.66919994       0.61678747       1.46771103
I       13.43555941      22.66236295      12.93335044       0.16173855       0.29993095      -0.04144820       0.38234367       1.83701001       1.67074549
I       12.34043851      16.03584019      -0.41523133      -0.12267834      -0.06166323       0.11239652      -2.29324540      -1.62028636       0.81307591
I       19.50454602      20.25252366       9.28421884      -0.02674526       0.05790888       0.27493234       0.78201471       2.32602706      -1.40637429
I        5.93609211      19.04625685       3.33932105       0.06229268       0.14897441      -0.10330784       0.21233234      -2.52186675       2.16640601
I       13.59243773      19.43011460       3.07074570      -0.00849494       0.03463401       0.40191191       0.62676222       3.21162768       0.78585814
I       13.47952778      20.02567388       9.68102458      -0.12990905       0.18130415      -0.10506235      -0.04276288      -4.91976683      -2.02572709
Cs      16.18897349      16.23219357      16.05547897       0.00687972       0.00525634       0.02020935      -1.58259205       0.32088315      -0.25992844
Cs       9.23195247      22.40508407      22.51414635       0.06819611       0.02383989       0.05030291      -2.09661794      -2.69163326       1.76263929
Cs       9.87136522      15.89099218      22.46334298      -0.00599255       0.06619616      -0.01316242      -0.12782088       3.33270667      -2.31479977
N       16.48259380      22.48709223      15.09157742       0.43901807       0.13667274      -1.30025311      -0.04654286       0.01045006       0.22098163
C       15.84766252      23.70740832      15.66591252       3.17496728      -0.56815933       0.07858279       0.08663054       0.82704245       0.16065025
H       16.40059073      23.83985802      16.61386165      -0.08816592       0.68626322      -0.38658601      -0.02999052       0.05816186      -0.08838049
H       14.90094297      23.42162689      15.91115777      -3.05138999      -0.52669255       0.64844052      -0.01033792      -0.03951229      -0.37056276
H       15.89798752      24.49445143      14.93426144       0.02255718       0.64578111      -0.11685452       0.19855282      -0.23279165       0.09787429
C       16.71421360      21.46189394      16.08946819       0.34340418      -1.79335850      -0.26507943       0.28334219       0.75481853       0.03326026
H       15.87454090      21.39255183      16.75333964      -0.72715540       0.07189104       0.44683261       0.05588504       0.17178155       0.16104847
H       17.61148876      21.61756793      16.68314099       0.32886497       0.45963504       0.05288651      -0.14625528       0.24399760       0.01436812
H       16.83525021      20.47716160      15.57984505      -0.04390412       0.45733639       0.23308768       0.11013775      -0.17484587       0.02509673
H       17.39557160      22.64538898      14.54409335      -0.17307474       0.49912791       0.59366750      -0.11481102       0.09316909       0.04907612
H       15.90470099      22.12834683      14.30385462      -0.45914181      -0.03992817       0.29794831      -0.08701480      -0.13573557       0.10186438
Pb       6.11555626      19.44982210      19.29204008       0.26897087      -0.14747262       0.37734819      -1.66949023      -1.87541143      -0.83204132
Pb      12.85803802      19.37956291      19.67396425      -0.03292660      -0.01673626      -0.16173016       2.36472859      -0.06476950       0.99826056
Pb       6.42776621      19.67045051      13.13980107       0.10730518      -0.07886089      -0.24478036       0.50881528      -1.46787820      -3.21455208
Pb      12.98074044      19.39419876      12.91134486       0.00268940       0.22048603      -0.08842905      -0.07026316       2.64709735       0.58280083
I        9.45504965      19.29194566      19.83055082       0.02566237       0.01293874      -0.00066780       2.31553848       0.95189354       0.56017112
I       16.05928568      18.77937228      19.10018612       0.08959162       0.02497459       0.03185922      -2.47626895       0.70663570       1.13571922
I       12.56138474      16.31111678      19.44917733      -0.12331741      -0.25727627       0.07446790      -1.43669007      -1.83228178      -1.50749700
I       13.14335139      22.56001362      19.07799418       0.09057841      -0.02127790      -0.04037763       2.11453250      -2.88347618       1.21445334
I       16.02921064      18.61528523      12.89009698       0.24101413      -0.00304617      -0.09408782      -0.07351571       1.56817686       0.60683917
I        9.65669686      19.98628963      26.00083102       0.09773582      -0.32064552      -0.43275255       1.17207153       1.03585794      -2.09608493
I       14.18313655      22.04469283      25.97121101       0.02724328       0.67818011      -0.06461534      -3.43506487      -2.20980812       0.11458456
I       12.24094795      16.42838705      12.80387874      -0.02946628      -0.38254748      -0.09775851       0.42668278       3.02904760      -0.16286009
I       20.64365397      19.59186821      22.76941265      -0.20463012      -0.02260861      -0.01089853       3.89221118       0.65109750      -1.55140208
I        6.46740354      19.57244603      16.24295122      -0.02219511       0.01631916       0.20386935       0.78720364       0.40440135      -0.18090862
I       13.46195488      19.24251797      15.88204418      -0.17542783      -0.01710138       0.39030950       1.11471313       0.05471604      -1.77312744
I       12.48340249      19.15079270      22.71349180      -0.02291318      -0.00107106       0.01427910       1.83548022       2.02796141       1.77069101
N        9.61118501      22.33800805       2.18008941       0.94801617      -0.56399491       2.54455936       0.57242575      -0.73915349       0.39890098
C        8.64147904      21.82598647       3.18389755      -1.17152318       0.71794194       0.56249642       1.04182728      -0.30793019       0.08949729
H        8.75003551      20.74082884       3.22877079      -0.14153501      -0.15707005      -0.05981950      -0.17383399       0.02957761      -0.21999757
H        7.60164518      22.13353979       2.89722289       0.68673690      -0.38275060      -0.02099976      -0.20680287       0.13841163       0.11782626
H        8.79235854      22.21867608       4.22056573       0.35038578       0.12033288      -0.71200725      -0.18734788      -0.17507930       0.09561252
C       10.99092564      22.32628880       2.73928451       1.09286510       0.45854773      -0.45447938       0.54323371      -0.33409547      -0.28364048
H       11.75638163      22.18583200       1.89422440      -0.93936034       0.25531276       1.10791680       0.15264399      -0.18017017      -0.09800906
H       11.04234941      21.47441228       3.42380016       0.10983191      -0.02195389      -0.04751037      -0.00257402      -0.37840739      -0.07986044
H       11.19495043      23.26633414       3.28711480      -0.14159679      -0.30047528      -0.15942721      -0.09577325       0.25762336       0.10595280
H        9.35847286      23.25471471       1.84439935      -0.25033159       0.66970449      -0.78633694      -0.07594723      -0.07817326       0.19977410
H        9.72902602      21.59420178       1.48167333      -0.72146266      -0.30947443      -1.59161381      -0.08413596       0.49617904      -0.27592821
Cs       3.49876954       2.77930934       9.53981153       0.18991032      -0.03600964       0.15429156       2.99294943       3.32567683       0.73181606
Cs       3.72442438      22.74402636       9.99362572      -0.09197107      -0.00474816      -0.07088173       2.06012252      -1.86876754      -1.14531521
Cs       9.61154096       2.95270369       3.13622579       0.01885838      -0.03120846       0.09880482      -3.43503702       1.23728768      -1.06734728
Pb      -0.08848355       0.10257127       6.64732848       0.12820658      -0.20051563      -0.01413514       0.92497094      -0.18156076      -3.73176982
Pb       6.66920053       0.09136648       6.67516288      -0.16510483      -0.11688154      -0.10593825      -0.26604183       1.55906159       1.71171499
Pb       0.10704191       0.06278196       0.39461554      -0.41820159      -0.18664045      -0.05554691       5.90608009       0.59035253       2.93313952
Pb       6.34873159      -0.28039470       0.04617745       0.09605330       0.00091472      -0.17651155       2.83820946      -0.92616009      -0.33932180
I        3.44748963      -0.42822263       6.30450974      -0.01808532       0.20391159       0.08019763       0.41708092       1.41618929       1.58749879
I        9.86512869      25.28730730       6.45518863       0.00445651      -0.00007324       0.06966904      -1.87889640       0.29040763       0.18496512
I        5.97198117      22.58653668       6.84958959       0.16066248      -0.03999754      -0.11154086       1.75103059       0.85103325      -0.00186298
I        7.23474013       3.39550555       6.37198579      -0.13286985      -0.39964700      -0.12022179      -0.07755482      -0.39026032       2.13544110
I        9.67454186      25.16778465      -0.28488569      -0.17219778      -0.13750935       0.09221469       0.68537605       0.01501442      -0.55768211
I        3.56276861       0.62823930      12.95342780       0.18653437       0.00688969       0.00423866      -0.16534112       0.32220887      -3.63565844
I        7.20529670       3.07883891      13.52310760      -0.06359136       0.06814141      -0.09140892      -0.21686811       1.08451230      -3.08949830
I        5.46456955      22.65945760      -0.64372744       0.19284471       0.04192918       0.28600087      -1.48426965       0.77916001       0.87197173
I       13.20136582      -0.65392592       9.56763696       0.00034742      -0.00449138       0.27077141       0.47091804      -0.45792527      -0.35022684
I        0.12511589      25.11397241       3.58935622      -0.13002919      -0.05023408       0.02591152      -1.72809937      -0.64433833      -2.25377417
I        6.76271966      -0.25349612       3.09412160       0.00150943      -0.00616143       0.24511596      -1.29970065      -4.29059886       2.15032218
I        6.37739555      25.63434344       9.91903490       0.12005282       0.07781036      -0.15732041      -1.93737757       2.34558544       2.06334798
Cs       9.82781842      22.33077495      16.26290673       0.02778157       0.06592199       0.05276993      -3.65285515      -1.93235232      -0.11768024
Cs       3.68425324       3.20446579      23.06824705       0.04638274       0.01180944      -0.02975544       3.03615937       0.56407531      -1.34527341
N        3.39786917      21.82105559      22.10460912       0.80833129       0.95163507      -0.04319665      -0.31889003       0.40827578       0.53403136
C        3.87029134      23.21057529      21.72111928      -0.87010815      -0.79982277       0.39883672      -0.19070430       0.81305606       0.43434576
H        3.18411607      23.60901007      20.98216948      -0.28562378       0.40366404       0.06918746       0.28037824      -0.01510210       0.01895419
H        4.84897787      23.17771517      21.34902523       1.52901342      -0.49181800      -1.16990477       0.05933810       0.00552786      -0.09250264
H        4.03459462      23.78143148      22.63303088      -0.78872213       0.34428749       0.32629859      -0.25519450       0.00902765       0.17039064
C        2.13035221      21.84890911      22.84391261      -0.21240376       1.21660368      -1.15235538      -0.37345755      -0.22558578       0.12882843
H        2.17504624      22.83580842      23.27879195      -0.70888804       0.21010963       0.76130245      -0.07150109      -0.10567719      -0.11691176
H        2.08471477      21.05842242      23.53499749      -0.06356000      -1.07094838       1.15372946      -0.02787077       0.00216875      -0.21240284
H        1.30395932      21.77681440      22.12834586      -0.07481997       0.12037327       0.03576888       0.36050149      -0.01624224       0.02353969
H        4.14150620      21.45922789      22.71185531       0.28264970      -0.59645387       0.16449224      -0.16348564       0.19147030       0.05644176
H        3.28731300      21.19417941      21.31194791       0.27136083      -0.46568423      -0.64469816      -0.35118291       0.05322718       0.11961284
Cs      10.14014951       3.68226276      16.55503562      -0.05819889      -0.06407720      -0.01973442       3.09204965       1.05798507       0.98172549
Pb       0.36950823       0.14930189      19.86269608      -0.06821340      -0.08609029      -0.11743801      -0.84539967      -1.33755028       0.80777034
Pb       6.84144128       0.13543089      19.56317517       0.13237396       0.05209054      -0.01749417      -3.19302334      -3.33142797      -5.82756781
Pb       0.54786875       0.18228801      12.91215586      -0.41728353      -0.13424705       0.15497557      -2.32625537       0.75573687       0.34350303
Pb       6.74746947      -0.12017437      13.22286279       0.12216543       0.09811878      -0.01631686       4.06466338      -1.57610690      -2.26890276
I        3.85754736       1.02977464      19.82122092      -0.27996915      -0.07631688      -0.15214590      -0.95762859      -1.86998960       1.78838133