640
Lattice="26.11506385803994 -0.10475016623252664 -0.0889900258606477 -0.10249176369490196 26.26922430769121 0.14160462908969945 -0.09902831586572897 0.1500552121705157 26.33105427113434" Properties=species:S:1:pos:R:3:forces:R:3:momenta:R:3 energy=-2583.97216796875 stress="0.00021333392942324278 -5.76651746087009e-06 0.00024251581635326144 -5.76651746087009e-06 0.0004704903694801032 8.127928595058619e-05 0.00024251581635326144 8.127928595058619e-05 0.0012592438142746687" pbc="T T T"
N        8.56029760       9.53250283       2.58409298       1.78139775       2.52019055      -0.17122921      -1.15556571      -0.20195058       0.21178524
C        8.14997309      10.57948023       3.60176851       0.85543286      -2.11212552       0.72691284      -0.22006147      -0.76426875       0.93216410
H        8.27383979      11.55948183       3.17434759       0.01069667       0.51792906      -0.17426976      -0.18867604      -0.07920043       0.13497477
H        8.80127900      10.36515990       4.48119537      -0.16041170       0.54749629      -0.38868520       0.10727170       0.06141535      -0.01028017
H        7.13955789      10.34445101       3.92906899      -0.38428049       0.22925339      -0.17545127       0.37628944      -0.11590882      -0.08364778
C       10.01515212       9.83614640       2.03714928      -1.37873630       0.55245670       1.98461354      -0.01083478      -0.55745065       0.13680534
H       10.70518105      10.12009031       2.87770224      -0.75807784      -0.39433726      -0.37165913      -0.02252980      -0.06963864      -0.06523250
H        9.87632294      10.71697488       1.41690578       0.12545886       0.05640733      -0.37725162      -0.09577027       0.00980112       0.03590154
H       10.34970893       8.96535732       1.53153817       0.36441765      -0.82209732      -0.67898869       0.13681625      -0.03840371       0.25422729
H        7.91280009       9.59441408       1.78588468      -0.36375662       0.06815290      -0.64071592       0.41986850       0.05635825      -0.02045039
H        8.42935012       8.61016737       2.94874089       0.14062343      -1.37685660       0.63686500      -0.01223318       0.00476524       0.18748112
Cs       2.59180366      16.22653270       9.44475500       0.11767780       0.10215500       0.24099921       0.35493728      -1.01963908       1.09405116
N        2.84514796       9.94670467      10.65206690       1.48588436      -0.72934697      -0.00773916      -0.77523522       0.12939234      -0.73744663
C        2.59963774      11.23598708       9.99013588      -1.06083007       1.15478056      -0.35108869      -0.46156927      -1.03668206       0.52088823
H        1.72499022      11.09209155       9.30091119       0.69322252       0.21180098       0.38752629      -0.09970163       0.04264831       0.26008545
H        3.47221069      11.65338063       9.46017743       0.10450809      -0.75581056      -0.25226300      -0.22624912       0.01636095       0.06820319
H        2.37189635      12.09055403      10.67633430      -0.15005033      -0.85986226       0.14338438      -0.04235445      -0.08719556       0.30408287
C        2.79388599       8.73428150       9.69595977       0.90015658       0.27941345       1.81683923       0.13750996       0.11801119       0.99103558
H        1.74485864       8.61595594       9.50393217      -0.71338740      -0.61743864      -0.04308271       0.04994396       0.37210043       0.10733605
H        3.33375978       7.89963210      10.24129170      -0.90689277       0.62623210      -0.66674725       0.02231167      -0.35500320      -0.13991224
H        3.28121403       8.93870709       8.75881099       0.61419247       0.43224151      -0.38437800      -0.22853231       0.17878839      -0.14969875
H        2.16013504       9.74039436      11.43698303      -0.31422512       0.29093381      -0.19780136      -0.22283285      -0.15233257      -0.01803110
H        3.78685079       9.97421837      11.14798128      -0.27581101      -0.03030635      -0.46763261      -0.11029425      -0.18740242       0.02524863
N       10.77382797      16.10234518       2.57972499      -0.75903752      -0.99066920      -0.22106066       1.06280274      -0.95319471       0.09620044
C        9.35133473      16.41076450       2.16957708       0.02544010      -0.74980829       1.35053730      -0.49044050       0.60381410       0.10043380
H        9.37262218      16.72667455       1.16540231      -0.18664372       0.85667993      -1.36629051      -0.20559760      -0.22982598       0.37499020
H        8.96462170      17.13379177       2.92507548       0.02024039      -0.19705551      -0.94403752      -0.00973313       0.27464800       0.16506745
H        8.73458432      15.47949011       2.20962704       0.40442933       0.46519532       0.18882140       0.19267643      -0.13039371      -0.16761998
C       10.74683284      16.31880030       4.06852477       2.94635418      -0.40322809       0.04814935       0.18738499      -0.27409684      -0.61101297
H       10.68279525      17.35535807       4.34124416      -0.73774036       0.99250398      -0.36549521       0.23141446      -0.00640678      -0.18558541
H       11.79076468      16.14184206       4.46499222      -1.01995895      -0.76644896      -0.14313882       0.11592313       0.03685182       0.55266662
H        9.93237067      15.76659421       4.52485352       0.02266586      -0.40047541       0.08111683      -0.19446242      -0.11118325       0.17932762
H       11.51286382      16.63450683       2.05008269      -0.58448919       0.10454631       0.53142926       0.16040097      -0.25816950      -0.06301915
H       10.97010620      15.08598169       2.27125161      -0.03733960       0.98761992       0.83323369      -0.03692645       0.08516814      -0.11844697
Pb      -0.49309915      13.13850693       6.51479320       0.12597214       0.12155727       0.04130696       0.26698025       2.01174350       0.30548847
Pb       6.67672446      13.28686219       6.87927357       0.07273473      -0.04471595      -0.03904350      -2.78946205      -0.08301586       0.81517473
Pb      -0.21718045      13.52421857       0.21106533       0.22931373      -0.12527068      -0.16734267      -3.47089686      -2.59060736       2.32096259
Pb       6.70335607      12.94348270      -0.22285156      -0.33640838       0.29351573       0.10172393       1.97419895       0.53931054       0.24583865
I        2.72952580      13.74595305       6.95037836       0.18734699      -0.08485462      -0.31446372      -3.47124959       0.38628962       0.41795897
I        9.82016233      12.97563663       6.98955636      -0.16157722      -0.02804409      -0.13155769      -0.96478419       1.81315877       1.68113547
I        6.41393786      10.19102370       7.64766604       0.03027969       0.14093586      -0.14785745      -0.18000799       0.96996190      -0.80761452
I        6.37407955      16.56176054       6.27733400       0.12178499       0.08064452       0.11005735       0.76991460      -2.13257551       0.12241711
I        9.70949867      13.18888399      -0.23714608       0.35081725      -0.08578036       0.16198833      -0.86540592       0.14336318       1.59085337
I        2.99892940      14.53762324      13.10416828      -0.00932310      -0.03904718      -0.12694773       0.79658888       3.55961275       0.40385307
I        6.51510092      16.49081940      12.98173104       0.14332675       0.14717953       0.05968677       0.64637989       1.76392473      -1.39440436
I        6.52734557       9.90086005      -0.16021050      -0.24281491      -0.18843185      -0.15320294      -2.43524361      -0.98399709       1.86955916
I       12.53042065      13.24875196      10.08084429       0.26682888      -0.06654138      -0.00806181      -1.29765915      -0.01533421      -0.99106471
I       -0.11867359      12.89977994       3.32787773      -0.00134843       0.05114853      -0.32953429       0.54580228       0.10391001       2.12460247
I        6.34433096      13.66656126       3.05453177      -0.15619573      -0.00621796       0.13781697       0.72338509       2.98105395      -0.45639782
I        6.36153319      13.98280571       9.92793420       0.01942247      -0.04002942      -0.23359180      -0.19275121      -2.21032826       3.30500175
Cs      10.19968173       9.67240459      16.43445293       0.01039287      -0.05986179      -0.01865206       2.06204533       3.28120431       2.28423797
Cs       2.91533471      16.97030481      23.35709847       0.09072643      -0.05054585       0.00256610      -1.51509708      -0.98404638      -1.45677573
N        1.93827444       9.98558286      23.13148774      -0.69205893      -0.19649291      -0.20434287      -0.36821885      -0.41429998       0.51000715
C        2.82321132       8.83938124      23.27825016       0.57151660      -0.37379639       0.01200537       0.14703177      -0.58066897      -0.07507660
H        2.29947690       8.07888308      23.82495042      -0.14819645      -0.59631642       0.51163759      -0.01970198      -0.01584892       0.17517710
H        3.70035856       9.22531913      23.82272677       0.01936224      -0.54649514      -0.05900417      -0.16292636      -0.05793725      -0.15177521
H        3.10268413       8.41294757      22.30107903       0.07442490       0.26802348       0.05488846       0.09503580      -0.12481679      -0.04960790
C        2.71086293      11.10139985      22.66180153       0.25745605       1.01872501      -1.54060159       1.10517043       0.47106624       0.29171872
H        3.43124296      11.32896477      23.42447927       0.66860689       0.54501106       0.16120900       0.27057216      -0.08739755       0.19188676
H        2.05084735      11.92831927      22.37758306       0.02163670       0.21505162       0.48389604      -0.02520191      -0.02292599       0.24774909
H        3.14940890      10.79612316      21.67313781       0.23512808       0.18059441       0.82299814       0.04662924       0.24968133       0.13849982
H        1.37679958      10.11945786      23.98739847      -0.01947877       0.32359852       0.38020812       0.20476232       0.00608103      -0.27879164
H        1.26477696       9.87841945      22.38827927      -1.00519995      -0.88667732      -0.57113424      -0.08356455       0.19261409      -0.13561818
Cs       9.88850823      16.48600213      16.48040195      -0.04648545      -0.21846014      -0.25386623       4.49754261      -0.17638615      -1.01519408
Pb      -0.17760696      13.42906032      19.77360517      -0.03686653      -0.11640304      -0.06342111       0.86558455      -2.92521036       4.02049092
Pb       6.29626399      13.61662212      19.66081565      -0.08566582      -0.15343007      -0.03081476       1.00750586       1.55912355      -1.01805232
Pb      -0.04041247      13.49187903      12.88173762       0.15821281      -0.37417511       0.14509209      -0.49233842      -0.93038122      -1.49839658
Pb       6.58686854      13.27070709      12.86435158      -0.02153942       0.01671298       0.28532738       0.99312873      -1.45825287       5.84266398
I        3.03169663      13.77341934      19.51907131       0.03457848      -0.03118276       0.01730705      -0.43190011       0.56226716      -0.06932469
I        9.45203676      12.54284385      18.85957398       0.10756326       0.10922761       0.07060891       2.65767562       0.74300855       1.11794695
I        6.02728198      10.47364143      19.21676030       0.00126909      -0.35088132       0.17318907       0.11521936       0.29246907       1.24125202
I        6.54813572      16.61785959      20.60163931       0.05433440       0.31819690      -0.05387197       3.67068545      -2.00671322       1.14232169
I        9.57771974      12.94237183      13.59645010      -0.12802690      -0.07414201      -0.09874580      -1.09335686      -1.18148354       1.58170151
I        3.13487121      13.61937964      26.62568675      -0.36975091       0.09160892      -0.09073577      -2.33190003       2.29611366       1.01571898
I        6.12150782      16.61486845      25.98849441      -0.12225931       0.18709295       0.05927179      -0.84907483       4.80842245      -3.20372162
I        6.14466914       9.93754372      12.24341726       0.04948552       0.21344911       0.00800677      -2.19911092      -1.48353169       1.99440277
I       13.25413092      12.45025794      23.22687586      -0.10141031       0.03260723      -0.30737620      -1.28719123       3.16369627       1.00694430
I        0.03342260      13.71552781      16.25956325       0.04226990      -0.07672096       0.07677552       0.96015126      -2.61405086       1.20457485
I        6.35120797      14.21908165      16.61517490      -0.00796083       0.05196447      -0.11314492      -2.08425221      -0.54022836       2.68023178
I        5.86744629      13.50289337      23.02480538      -0.00903456      -0.05962622      -0.01957622       4.03448958       2.65270131       3.35667228
N       17.65047824      16.72037340       3.16123390      -0.34633177       1.34651469       0.87005624       1.13503499       0.19087896      -0.75534266
C       16.41177696      17.44844026       3.57445734      -1.04863312      -0.41563135       2.20678402      -0.63883092      -0.24023082       0.37880573
H       15.92867640      16.94613126       4.48290615       0.55248878       0.01357054      -1.22059124       0.05213856       0.15237466      -0.07522396
H       15.66233827      17.53114158       2.77858250       0.34059396      -0.07669452      -0.21391226      -0.31175032       0.05494076       0.28725618
H       16.68353893      18.41738288       3.99900491       0.16581352       0.34448696      -0.43290978       0.09183804      -0.08292780      -0.22099361
C       17.35488646      15.43062696       2.55191043       1.12026298      -2.18665008       1.44853971       0.56249920      -0.09970413       0.82816441
H       16.64122842      14.85348576       3.19061267       0.28496863       0.54308687      -0.21255418       0.05973192      -0.08353554      -0.06878735
H       18.32079231      14.82161997       2.58706458      -1.12394155       0.56636516      -0.55821520       0.36432064      -0.22687348       0.11173450
H       16.92894432      15.56744801       1.58667633      -0.27041315       0.05471929      -1.10679607       0.00487659      -0.01097186       0.03286176
H       18.26613375      16.57987620       4.03048860      -0.34957449       0.40852057      -0.97776472      -0.07940326      -0.41382566       0.12642626
H       18.06627331      17.38912026       2.46428474       0.60355958      -0.64525226       0.34727191      -0.01825197       0.01791451      -0.30685651
N        9.28905505      23.16461683       8.81019900       1.00918435      -1.30112414      -1.31501527       0.04786110      -1.05509008      -0.27357745
C        8.37834090      22.35281954       9.59370000      -1.52485796       0.88340687       1.46449990       0.14235086       0.34806101      -0.13392008
H        7.81492404      21.74726005       8.88829503      -0.20390209      -0.36820259       0.18882652       0.05094248       0.10716238       0.03701011
H        7.69163131      23.00812779      10.24309558       0.60756768      -0.51859695      -1.09715571       0.16995361       0.07438214       0.08663954
H        8.94064519      21.80929181      10.33594949       0.43784403      -0.70690887       0.10653966      -0.07570471      -0.07986680      -0.16374089
C       10.21108817      24.03007698       9.55792317       1.86371831      -1.37558242      -1.71421826      -0.86198110      -0.38544486       0.38240707
H       10.77604719      24.58610535       8.77477146      -0.18866825      -0.04431137       0.75775419       0.16848929       0.00638807      -0.15299789
H       10.88970103      23.32697985      10.09380716      -0.23129324       0.69302474       0.03187954      -0.02363587      -0.09609302       0.34823154
H        9.61417299      24.61694892      10.16557828      -0.89171942       1.49513135       1.51296157      -0.09041302      -0.01259216      -0.09620000
H        8.77407518      23.63790727       8.08647643      -0.80275156       1.11216364      -0.49763833       0.02576491       0.02166007       0.10577641
H        9.85973202      22.52779631       8.20075489       0.00113064       0.01336658       0.39254371       0.15780232       0.10986886       0.04608712
N        9.42787643      16.95683889      10.64950285      -0.95213562      -1.07306380      -0.72317623       0.26669552       0.32523809       1.21266512
C        9.81432373      16.02119845       9.47779262       1.41294355      -0.50321968       0.72151194      -0.61708297       0.29638516       0.07557671
H        9.00926036      16.06861797       8.75263530      -0.19410396       0.00719734      -0.26004056      -0.18384904       0.06844914      -0.32098349
H       10.12209181      14.91856869       9.70150311      -1.04541133       1.60978779       0.38787120      -0.15670565      -0.09384355      -0.06277529
H       10.76694442      16.38416538       9.06133053      -0.31006298       0.44131097      -0.12426614       0.07870846       0.08781137       0.10513813
C        9.33057326      18.42242423      10.30650215      -1.80957232      -1.29895298      -2.17255972      -0.41244659       1.02866029       0.62623319
H       10.19665948      18.64621556       9.70721489       0.82584772       0.46374395       0.12815327      -0.19120964       0.18680769       0.04188243
H        9.13590051      19.05781845      11.16547577       0.10895198       0.02935954       0.19094917       0.09767762       0.02487047       0.29103201
H        8.49574873      18.42928813       9.52960034       0.52276697       0.45965295       1.01997092       0.15490625       0.12308505      -0.19023441
H       10.03275667      16.90769140      11.43644530       1.50325071      -0.48260697       1.04348891      -0.05034582       0.00699162       0.07209399
H        8.53985908      16.56406212      11.04178870      -0.13359117       0.45415315      -0.15902477      -0.13276479       0.09045743      -0.21915902
Cs      16.36744851      22.73158955       2.93834423      -0.11282980       0.02236975       0.03463553      -2.62814058      -1.14766714       2.01304526
Pb       6.64615067      19.94990482       6.63732390      -0.00551957      -0.11448307      -0.31229688      -1.70273519      -3.61195318       1.19761601
Pb      13.10531547      19.66121196       6.07785401      -0.01400962       0.14116618       0.27350247      -2.54294915      -5.49518779      -0.32137145
Pb       6.60091306      19.55476462       0.19543553      -0.15776742       0.01743799      -0.05242713       1.63221343       5.51037333      -1.85100149
Pb      13.26225868      19.75222762      -0.47784492       0.01624549      -0.19689653       0.01592374       2.25295748       2.78252528      -1.44235529
I        9.90107434      20.24812109       6.13109507      -0.17222460       0.01622199       0.17083568       3.01618324      -2.69139068      -0.32644463
I       16.34172160      20.16945555       6.80943022       0.02231319       0.04704577      -0.05090065       0.35715763       0.39285003      -1.58677413
I       13.83208006      16.48581469       6.67125224      -0.15820936      -0.18049237      -0.11089197       1.45707111       1.17581276       0.42056254
I       13.21621534      23.00459659       6.81947922      -0.03463012      -0.21709830       0.03684124      -0.82821986      -1.55170711      -1.42365988
I       16.37400777      19.70512438       0.12166297       0.06822646       0.12327903      -0.04854742      -0.79780012       0.35173882       1.67948449
I       10.14523290      19.76226113      14.13798738      -0.12472320      -0.02006494      -0.29478226       1.93460402      -0.64435659      -2.31260280
I       13.72112082      23.03566371      11.88596139      -0.17751976      -0.19668817       0.17428541       0.05054372      -1.79081666      -1.03603783
I       13.68186388      16.47507550      -0.41734328      -0.21748935       0.00917986       0.15853687      -4.57444973      -2.37787049      -1.38637841
I       19.73290292      19.42036253       9.84991729      -0.03837744       0.07875077       0.03258901      -1.57101735       0.79173056       1.08221552
I        6.75653920      19.96874783       3.34859799       0.02138482      -0.09274626       0.22648635       1.44856468       0.53175309      -0.85238804
I       12.96741873      20.24240419       3.11195281       0.12788975      -0.04190241      -0.06707199      -2.56170661      -1.23254272      -4.94463030
I       13.60444211      19.07443974       9.55999069      -0.24124331       0.10594572       0.03111480      -0.44948507      -0.86493752      -4.63836226
N       16.97317177      16.04969781      17.09999987      -0.56684320       0.53151005       0.68795744       0.61375708      -0.73506770       1.64551830
C       17.85544566      16.48603590      15.99801037      -1.22068386       1.84340027      -0.99459757      -0.03570396      -0.69394963       0.77023703
H       17.41487409      17.44157875      15.59239992       0.26431843      -0.51302891       0.39257824       0.04132998      -0.26694044       0.23434023
H       17.71889256      15.81007969      15.15950314       0.64573365      -0.62884348      -0.09363800       0.19993517      -0.21623725      -0.05865427
H       18.85592739      16.76289390      16.33241927       0.21674182      -0.51249339       0.03798561      -0.18522292       0.01393855       0.03546619
C       15.62055117      15.56950604      16.65480012       0.89910682       0.97813165      -1.26360556       0.43848032       0.41240861      -0.60305905
H       15.83255862      14.84163656      15.86328439      -0.30823692      -0.95545817       0.65946899      -0.11607042       0.18045834       0.04678406
H       15.33353509      16.39080728      15.99577093      -0.94157155       0.41806726       0.44004508       0.15016915       0.04271167      -0.11319596
H       14.96471062      15.37312319      17.52128431       0.17980769      -0.21798715      -0.63113791       0.11283581      -0.14077568      -0.18789012
H       16.80052763      16.87824952      17.71832047       0.40203140      -0.60773156       0.04122734       0.00777088      -0.12438468      -0.23827344
H       17.40949036      15.29425051      17.61978379       0.39109941      -0.23513737       0.66149883      -0.32334301       0.18892658       0.19640484
N        9.96791120      23.35213158      24.21017840      -0.84012849       2.11302030      -0.21913015      -0.17382401      -0.07268330      -0.15601941
C       11.08145147      23.50581362      23.25319020      -1.66643251      -1.84326216      -1.34348696      -0.34692604       1.11194337       0.34808496
H       10.78178574      24.26748981      22.51075665       0.36288964      -0.29693949       0.07501109      -0.15858803      -0.02378259       0.14659095
H       11.07260442      22.42929814      22.82484622       1.02970017       1.79025003       0.00643829      -0.04023879       0.23591205      -0.20704923
H       11.91717686      23.76368978      23.84452376       1.36615804       0.27334120       0.26359641       0.12451855      -0.23755619       0.23461854
C        8.75958963      22.77791653      23.49569366      -0.29470229       0.33112244       2.60349076       0.03542604      -0.75473460      -0.05150711
H        9.15504394      22.17716974      22.67187472      -0.59748083       0.05603831      -0.00060531       0.15974394      -0.11625711       0.17741850
H        8.12014378      23.64492372      23.29577904       0.07915774      -0.06388965      -0.93684734      -0.31401222      -0.28298365       0.06385518
H        8.14550331      22.24409896      24.28346679       0.69631204      -0.14526397      -0.91875631      -0.10908425       0.04476150       0.30260638
H        9.78059206      24.27396827      24.75920195      -0.11529856      -0.71366048      -0.90697907      -0.01262387      -0.19117693      -0.13742799
H       10.37552388      22.82389154      24.94819099      -0.03678576      -1.59808584       1.33988501       0.00008979      -0.15681262      -0.10796099
N        9.69025267      16.60580764      22.43281447      -0.70874236      -0.09907652       1.02780208      -0.18351837      -0.66172256      -0.33608185
C        9.76842233      18.04962721      22.87526984       0.38033623       0.93412888      -2.94823685      -0.34856927       0.90162959       0.31795442
H        8.78363823      18.30726130      23.20767344      -0.88144863       0.30778095       0.13465831      -0.00957809       0.02636975       0.02390447
H       10.02448817      18.69885422      21.94266547      -0.33624780      -0.95318893       1.44831415       0.00919851      -0.01943001      -0.02234635
H       10.42365357      18.30983454      23.67696078       1.02495690      -0.47720085       0.61078942      -0.03794292      -0.05832913       0.02360594
C        9.21539489      15.77664317      23.64636276      -0.39381382       0.74845352      -1.94405544      -0.14738675      -0.81450892      -0.04970468
H        8.83969691      14.80456440      23.31800866      -0.16859378       0.08383713      -0.19326767      -0.11588127       0.23582347       0.14496944
H        8.43008949      16.44341190      23.99366439      -0.32550876      -0.51022348       0.60238856       0.18109057       0.08201354      -0.05379769
H        9.97292512      15.60695377      24.37495458       0.98451718       0.26046624       0.48871225       0.07701401       0.17015998      -0.08500923
H       10.51407513      16.23747077      21.91357264       0.13779940       0.15400082       0.33120981      -0.27072629       0.28387654      -0.12424932
H        8.87352774      16.60249124      21.75375754       0.45438044      -0.24540452       0.18201288       0.07169902      -0.29267994       0.03845186
N       16.12380752      24.23774750      16.53100632      -0.63360691       0.96804993       1.27345300      -0.13812152      -1.15022238      -1.42345874
C       15.72481921      23.05610175      15.82485896      -1.82569955      -0.46816836      -2.10649857       1.18946646       0.63140824       0.89931667
H       15.04306935      22.47223232      16.43831377       0.16757307      -0.29296800       0.40495871      -0.13103212      -0.03144942      -0.15888415
H       16.56595601      22.51150802      15.48066931       0.95814349      -0.77062966      -0.25636360      -0.10268128      -0.06010557      -0.13779614
H       15.08862648      23.36673043      14.93783364       0.80839479      -0.32388318       0.64319680      -0.03202037      -0.01547077       0.08842080
C       16.62134294      23.99132156      17.92016106       0.79302346       1.93021641      -0.03781140      -0.26535823      -0.21261004       0.64200460
H       17.18315360      24.92016816      18.21370241      -0.21120396      -0.72251271      -0.22684550      -0.14662129      -0.03641465      -0.18152629
H       17.31325876      23.16154583      17.90148001       0.03026202      -0.51382173       0.12611272       0.00534351      -0.06271196       0.41513744
H       15.78337185      23.94768029      18.62635698      -0.03362066      -0.60728738      -0.25723705       0.25834143      -0.07459542       0.13614747
H       15.21523431      24.69733927      16.64422423      -0.30753453       0.99333431       0.20590542       0.01489833      -0.38383778       0.28554324
H       16.70617244      24.90620957      16.00373352       0.30990016      -0.25488831      -0.04621154      -0.15049240      -0.21920173      -0.16633745
Pb       6.61250067      19.72706531      19.95429911      -0.22281564       0.06597549      -0.13581296      -1.22239566      -0.75484000       0.33719487
Pb      12.84389216      19.47933740      19.32032447       0.15526593       0.12994253      -0.11881399      -2.03625904      -1.05827718       2.22114699
Pb       5.97003403      19.61866339      13.50286357      -0.12499838      -0.06844447      -0.12136100       3.19508223      -1.28239816       2.49382711
Pb      13.34045569      19.68784053      12.53973982      -0.12843462      -0.03762770       0.17878798       0.37360975       3.67736166      -0.08188473
I        9.77311567      19.37766349      18.51344126      -0.11201816       0.31014442       0.40554393      -1.19262728       1.20610044      -0.16555506
I       16.20784312      19.69350659      19.33366488       0.17275273      -0.11109876      -0.02999221      -1.25306475       1.25266060      -1.72475068
I       12.38684993      16.25177460      19.82080305      -0.09056570       0.03752109      -0.00229388      -1.70900680      -1.78037780       2.59206513
I       13.20196974      22.91805773      19.34689506      -0.16341284       0.07169185       0.16870558       0.42499494       1.30320123      -0.21861548
I       16.35745852      19.04035024      12.27721130       0.23647339       0.11183250       0.19984946       1.24242163      -0.03328556       0.29591705
I        9.96703871      19.89868345      26.55177134      -0.14778271       0.05735878      -0.05042527       3.43334888      -0.56578724      -3.31609009
I       12.63303863      23.29155043      26.85477264       0.03078844      -0.50592061       0.02603794      -3.08858796       4.08101935       0.23695497
I       12.83002615      16.29897859      12.99122596       0.03718764       0.08095975      -0.01925876       0.54673879      -1.00538485      -0.95253659
I       19.92307648      19.98734622      22.78711689      -0.04999142       0.05426995       0.02721411       2.88550725      -0.93348271      -3.07106916
I        6.15041720      18.89970893      16.75806156       0.11935863      -0.00420102      -0.10818614       0.95270007      -1.31419299       1.49742957
I       13.18208532      18.89548171      16.15593015       0.13015217       0.03574317       0.09423290      -0.53587954      -0.07166906      -2.81509276