800
Lattice="26.46721812398282 0.1170426313380115 0.028237987258905868 0.31858396417459955 26.427166309752323 0.04612937805059013 0.03656921012605975 0.06633030694216943 26.74835358385701" Properties=species:S:1:pos:R:3:forces:R:3:momenta:R:3 energy=-3427.48291015625 stress="-0.0006399194244295358 4.1764109482755885e-05 0.000794304593000561 4.1764109482755885e-05 0.00047133213956840336 -0.0006159706390462816 0.000794304593000561 -0.0006159706390462816 0.0014405309921130538" pbc="T T T"
Cs       9.83291935       9.88348369       2.56231293       0.09031046      -0.00731847       0.09585186       1.61155204      -3.00776598       0.32008240
N        2.88647954      16.59315543      10.82295220      -0.56079640       2.81338422      -3.31185680      -0.15123180       0.87786546      -0.01480400
C        1.83571191      16.57467938       9.58355719       1.93447312       0.20951914       1.70164450       0.07887366      -0.30272336       0.33888795
H        2.03852075      15.62034919       9.11395513      -0.29384948      -0.33886075      -0.25144876      -0.01622942       0.04806413      -0.23851039
H        2.19991006      17.38682299       8.96535783      -0.25201128       0.27541076      -0.36295290      -0.34372800       0.09137525       0.02516521
H        0.83340152      16.71662811       9.97651990      -0.17854907      -0.05585334       0.06078555      -0.28929221       0.09849915       0.31203261
C        4.28179418      16.80510002      10.26447025      -0.41648064      -1.91911654       1.16162756      -0.16921637       0.61963799      -0.32802182
H        5.02327114      16.73292747      11.05418725       0.01456767       0.34650839       0.56887051      -0.03874461      -0.24818268      -0.01022130
H        4.41767386      17.71901525       9.72850262      -0.28939278       0.67771955      -0.53178528      -0.13417608      -0.03675686       0.32886434
H        4.48375779      15.88797429       9.71610787       0.01761934       0.06188941      -0.75637136      -0.13859516      -0.03005838      -0.05619903
H        2.79601922      15.69849919      11.22130825       0.04623528      -1.73187473       1.50784524       0.06974300       0.29746374       0.37559888
H        2.62630944      17.39420173      11.42328849      -0.02664314      -0.40393993       0.29544390       0.26909332       0.15882014       0.32154125
N        4.57611516      10.26531710       9.89595580      -1.18279000      -0.43113749       0.47972248       0.08232546      -0.65904880      -0.13073907
C        4.54867053       9.84997791       8.46838695       1.21256469      -0.17966637      -0.02339947      -0.38262534      -0.05518910       0.99790830
H        5.26165137      10.46108889       7.90294740       0.20564715      -0.07242760       0.13221934       0.00203720      -0.09260855      -0.09874964
H        3.60990929      10.00165119       7.97962123      -1.07923153       0.15940930       0.20465706      -0.21234594      -0.14712002      -0.03769826
H        4.83353706       8.80344296       8.40498712       0.02610357      -0.30830741      -0.05457702      -0.23406382       0.00158947       0.12400495
C        3.22301282      10.52410372      10.49691761      -0.72360614       0.54778344       1.24244139      -0.26274936       0.40707123      -0.45010045
H        3.31914604      10.75603301      11.62054709       0.04706679      -0.43711979      -1.48308056       0.12218298      -0.03725463       0.00503423
H        2.47875925       9.70872296      10.34663131       0.89137873       0.00306551      -0.01525557      -0.11225155      -0.07229718      -0.33466343
H        2.77683253      11.40990825      10.02398235       0.21564420       0.01647550      -0.10558079       0.01399059       0.12613655      -0.02805991
H        5.14175181      11.09855025       9.95402495       0.32216901       1.14062613       0.14437672       0.08652761      -0.10174130      -0.50335132
H        5.05188538       9.63283445      10.55971631       0.19352379      -0.50729033      -0.35428708       0.18318234      -0.02953945       0.17689958
N        9.55154713      16.24386629       3.47577230      -0.02865983       2.03966064      -2.11525200       0.69841455      -0.13113936       1.59599907
C       10.04917766      16.84454565       4.73491807      -1.40103183      -0.69780799       0.71453836       0.24604468      -0.22736852       0.57309810
H       10.85681285      17.49981796       4.58792582       1.18870927       0.84078133      -0.55257288      -0.08687649      -0.24941164       0.29404729
H       10.26908099      16.09809259       5.49142745       0.48887661      -0.63685628      -0.25416619       0.01348599       0.08776115       0.18834233
H        9.19375759      17.33766836       5.19044770      -0.17758069       0.53228320      -0.11139628      -0.16573375       0.20993158       0.01926738
C       10.57409302      15.74261048       2.47874453       0.24219114      -0.64888744       1.19976710       0.82702948      -1.01945617      -0.30615025
H       11.19166095      16.51520788       2.04520298       0.08130446       0.61051898       0.11639462       0.06725663      -0.10081895       0.10591294
H       10.03786136      15.21940553       1.71895614      -0.53728546      -0.28747132      -0.79000875      -0.17817908      -0.11415173       0.17443908
H       11.18431827      14.99021663       2.99262642       0.12379700       0.17506566       0.09720030       0.10032124       0.01747548       0.09881116
H        8.94663339      16.97815017       2.91403889       0.88413327      -1.31659978       1.35210313       0.04553163      -0.23087172      -0.31110954
H        8.94207931      15.47061575       3.69993729      -0.77536086      -0.64118707       0.19196048       0.01799785      -0.21508902      -0.12888222
Pb       0.26944566      13.18170821       6.07294270      -0.19305007       0.14398668       0.40784450       0.57228505      -5.17608122      -1.10535355
Pb       6.89086924      13.16433372       6.22537316       0.02057252       0.11439555      -0.03201969      -3.26586841      -3.28681011      -3.31380330
Pb       0.37200502      13.10309527      -0.13668714      -0.25956518       0.48988308      -0.09527901      -2.43349297       5.49307195       1.21154366
Pb       7.00183801      13.15341365      -0.06968765      -0.07204652      -0.01776979      -0.10255103      -1.97650984      -1.22886470      -1.21613110
I        3.25120413      13.36023662       5.84708113       0.28280032      -0.02525637      -0.04921512       0.29279474      -0.72789327      -1.11948535
I        9.96529406      12.57378486       5.59475325      -0.03193126       0.11536601      -0.02289740       1.04257842      -2.34984777      -1.12960137
I        6.55408481      10.11701178       5.21763908       0.05213666      -0.22616694      -0.12351116       1.72928103      -3.31430327       1.06018131
I        6.96178034      16.43577188       6.41148796      -0.15838760       0.00408549       0.06919931       3.17707524       0.61141863       2.10035824
I       10.07164285      12.56297899      -0.42958576      -0.07232155       0.11595220       0.21579335      -0.01892886      -0.82751883      -1.25255921
I        3.42823554      13.39471124      12.61987744       0.09349497       0.09996726       0.28875096      -2.04852332      -0.21136193       1.84267531
I        7.24181211      16.54688380      13.47758579       0.06128486       0.04739170      -0.01231493      -0.67855543      -2.04348818      -1.71464975
I        6.50479529      10.02114795       0.53411308      -0.06657813       0.20171462       0.01403614       2.06319620      -1.71922928       2.63938536
I       13.27866170      13.77702583       9.55035631      -0.10997481      -0.13820732       0.04720627      -0.30522072      -2.57051631      -1.86128801
I        0.16090954      12.65980418       3.11550583      -0.07995173       0.06493982      -0.23660512      -1.07008207       0.22756297       0.66372944
I        6.54857603      13.74393085       2.97669337       0.07773026       0.05814634      -0.00119559      -1.10178065      -2.60654725      -2.21429270
I        6.48999894      13.80363191       9.41148114      -0.00957298      -0.34874905      -0.04780326      -0.59424992      -0.67034428      -2.77618169
Cs       9.00997562      10.14036698      16.51427871       0.05349918      -0.03387367      -0.03554024      -3.00320845       1.40985323      -0.29335390
N        3.40836395      16.19087863      24.08996558       0.77030252       0.39380972      -0.27946577       0.11799315       0.25743492       0.38078954
C        3.84900704      15.38419529      22.90305248      -0.60936401       0.62565881       0.44805051      -0.40862539       0.64443943      -0.19293971
H        3.05995058      15.30515753      22.15515539      -0.26381795      -0.23308437       0.17565466       0.22433183      -0.05386743      -0.06999598
H        4.21155293      14.46073981      23.29237240       0.23723634      -1.04989992       0.01807092      -0.01966738       0.22689236       0.12565668
H        4.66144598      15.93821913      22.47941587       0.72159689       0.33251157      -0.54663446       0.24404655      -0.14018504       0.26732868
C        2.63738449      17.42054776      23.60556000       0.60560072       0.75076606       0.51952899      -0.68083504       1.13639110      -0.45275275
H        3.05208662      17.81195413      22.62403124       0.06040928      -0.43180628       1.17830869      -0.06686027      -0.14116577       0.14234035
H        2.63348769      18.20535354      24.43663220       0.11628576      -0.79519812      -1.02484551       0.02823549      -0.00630404      -0.08115604
H        1.60538592      17.14163634      23.38154512      -0.17136034      -0.34964596       0.10959199       0.13441944      -0.27021040      -0.13668235
H        4.35070693      16.35905568      24.60577136      -1.31914248       0.56688319      -0.33958716      -0.01287005      -0.13463952       0.19071825
H        2.86431549      15.61837030      24.77706259      -0.05483049       0.18941996      -0.33350075      -0.04847027      -0.05629579      -0.09752373
Cs       3.33979983       9.77727515      23.45996464       0.01221072       0.07523922      -0.01015129       2.26816083       0.28123616       0.61426309
N       10.01224931      16.65765022      15.93009722       1.19614169      -0.44938484      -0.65769503       0.31605174       0.63328764       0.67451255
C       10.14046551      17.77180539      16.86350169       0.25103113       0.55824484       1.85966485      -0.66451736       0.26959730      -0.68853061
H       10.88896513      17.49092219      17.70140995      -0.88120755       0.38710783      -1.30321006       0.19551365      -0.00429096       0.02369199
H        9.17469231      17.94754498      17.37798030       0.17793098      -0.10373226      -0.24223199       0.07885447       0.11268016      -0.15705868
H       10.46078837      18.70134947      16.36037398      -0.02152082      -0.28420502       0.05402632       0.08059126      -0.04269257       0.30964697
C        9.79746297      15.36643719      16.67587722       1.95824559       0.88212091      -0.78169888      -0.10034268      -0.61275052       0.65479557
H       10.61354076      15.41646539      17.40012551       0.00095766      -0.77997875       0.24581837      -0.30155188      -0.03054899       0.08564485
H        9.86190881      14.53904820      15.96991673      -0.06209959      -0.23867478       0.12557133       0.03314525      -0.03190918       0.16739289
H        8.87931070      15.48171957      17.17193882      -1.51725841      -0.18918503       0.74355475       0.05117118       0.04875424       0.24955435
H       10.87495581      16.65984305      15.31631004      -0.35952351      -0.43416738       0.35765264      -0.00239434       0.04751088       0.41193596
H        9.25464693      16.73538854      15.25190468      -0.87115446       0.46312520      -0.40770308       0.00018576       0.12001905       0.01058915
Pb       0.02495289      13.08336787      19.41087734      -0.01622221       0.03231192       0.21045916       1.77835998      -0.53661603       6.51035972
Pb       6.57246443      13.05641417      20.18676734       0.03075686      -0.11507794      -0.03936976      -0.80385663      -2.45171028      -2.85785554
Pb      -0.12841583      13.08874537      13.01240716       0.23524349       0.00596091       0.07240691       0.82899407       0.75412985       1.58804813
Pb       6.57500519      13.33657182      13.44417229      -0.02706891       0.02999571      -0.17360035       4.21586032       1.41260404      -1.13127984
I        3.21633700      12.62455592      20.17568612      -0.04345737      -0.03651330      -0.01762197      -5.81445241      -2.90239117       2.17105842
I        9.87614221      12.24537452      19.98277936      -0.16391417       0.04201712      -0.03727780      -0.80554575      -3.01116678       1.47790839
I        6.49029248       9.87776584      19.39380901       0.00197377       0.11241576       0.26823161      -3.33318874      -0.42408677       2.80451118
I        7.11687946      16.51926363      19.92462152      -0.12957872      -0.09926619      -0.06569120      -3.90576365       1.53615108      -0.18888938
I       10.00355437      12.69083239      13.05707305      -0.12001876      -0.01893242       0.13424360      -1.27103807      -2.46045398      -1.31698040
I        3.38812500      13.87070161      27.00657548       0.29830152      -0.15460428      -0.06900468      -3.97315741       1.86421445      -1.86384912
I        6.63761290      16.73339173      26.06980358       0.06374038      -0.25520563      -0.04331913       2.22746892      -1.08035323       2.83052770
I        6.83881658       9.79066411      13.06955975      -0.12263523       0.18383512      -0.02673613       1.00456673       4.10836469      -1.37835943
I       14.15706366      13.07635571      23.22073434      -0.08867497      -0.05437762       0.01555845       1.45118100      -0.23131123      -1.75539100
I        0.24012437      13.02627992      16.35803568       0.09155277       0.07885167      -0.00905374       2.67597843       3.25967702      -0.05578771
I        6.27328481      13.07404584      16.44923964       0.14319360       0.06231408       0.08772683      -0.09392081      -1.13737625       1.58750518
I        6.76577952      12.38307529      23.31435814      -0.23604417       0.05724906      -0.09089879       3.21085098      -0.62365156      -1.44932581
N       16.34819281      17.19087559       4.14546057      -0.62797154       0.01604810      -1.29089195      -1.21759138       0.60881936      -0.76742500
C       16.76648180      16.75538240       2.74493187      -0.00406942      -0.12831135       0.94516027       0.16128654      -0.50657386       0.08315396
H       17.67097249      16.15030648       2.93342633      -0.23290062       0.03556421      -0.46285491       0.10117756      -0.19051883      -0.14372568
H       16.99868970      17.66072888       2.17666218      -0.02226605      -0.10314676      -0.11178691      -0.00461689      -0.28448597       0.07079907
H       15.94768572      16.18899081       2.30308471       0.02209547      -0.17251365      -0.08684829       0.05472172       0.19884627       0.38292654
C       16.29656168      16.14037921       5.15599515       1.16205886       0.05094731       1.84484197      -0.87552842      -0.29036285       0.38070379
H       17.26536573      15.58771082       5.32878647      -0.52068732       0.76307818      -0.53508824       0.17748942       0.16352720      -0.09048957
H       15.56274402      15.42155874       4.86836352      -0.74672333      -0.62462442      -0.39010882      -0.06503822      -0.18272564      -0.07579515
H       15.97752591      16.60517623       6.13060722       0.22825303      -0.36628409      -0.77046223       0.19167172       0.10383486       0.11303800
H       15.43322197      17.67736069       4.16392503      -0.33004258      -0.16395774      -0.43075729       0.00057497      -0.02933191      -0.11390758
H       16.97084076      17.95780138       4.30611843       1.17660236       0.75933607       1.03317319      -0.24392935      -0.08388573      -0.10358620
N        9.67775506      24.20633739       9.78431084       1.29508975      -1.39510863      -0.94633301       0.75918434      -1.05619217       0.45816505
C        9.27589623      22.98383754       8.98402286      -2.80680693       0.62907283       1.59908512       0.19529618      -0.60003685       0.91588351
H        9.08826232      22.17797239       9.77862299       0.06537808       0.83290602      -1.38443604       0.02833807       0.05214594      -0.05988508
H       10.00410583      22.70494078       8.26714050       1.08529428      -0.23486554      -0.58172576       0.23388448       0.20475309       0.15363341
H        8.32616450      23.31659075       8.43646906       0.92811220      -0.87356355       0.68300618       0.03209059      -0.04461962       0.07520933
C       10.93919197      23.84497871      10.49605427       1.04733069       1.30576953       0.75300642       0.27778758       0.19900690      -0.41728494
H       11.75755115      23.53224100       9.82859499      -0.26876672       0.52555630      -0.38827346       0.02317333       0.00811187      -0.06577659
H       10.79769829      22.94813223      11.10068251      -0.49817647       0.10855321       0.43612701      -0.24378128      -0.29482224       0.19220578
H       11.24575495      24.75589817      11.11488109      -0.22919238      -1.28248879      -0.58658607       0.07248088      -0.01537909      -0.01364090
H        8.98813154      24.36843005      10.53459971      -0.56852225       0.38744816      -0.19060841      -0.07970434       0.03952040       0.10984760
H        9.81446511      25.01299785       9.09419398      -0.09174349      -0.06824750       0.71083144      -0.01012178      -0.13179920       0.02230924
N        9.70223813      17.32751481      10.90981502       0.36200371      -1.75585275      -0.30370245       0.58792840       0.14843795       0.58085437
C        9.74138809      15.81651240      10.57953628       0.17270144       0.94469784      -2.92258975      -0.76338486      -0.61792588      -0.52438269
H        8.70812856      15.43421117      10.29729392       1.03173447       0.39762734       0.90057792      -0.30650559       0.22280298      -0.26653080
H       10.37190524      15.24994032      11.26479095      -0.45311953       0.04742978       0.45628759       0.13259459      -0.01448306       0.18204442
H       10.31473425      15.80383008       9.58356226      -0.61521920      -0.07326240       1.20311618      -0.06787341       0.06652336       0.11992388
C        9.41598563      18.24503216       9.76730832       0.88884178      -0.29022261      -0.02163708       1.14382750      -0.11226858       0.68432909
H        8.62154314      18.80229006      10.18687358      -1.34925786       1.09604101      -0.44688217       0.05776826      -0.05768391      -0.10130841
H        9.19914337      17.70868940       8.84067910      -0.35535859      -0.30765950       0.24629890      -0.03806663       0.30999050      -0.00042128
H       10.25073688      18.92108308       9.54345538       0.21160415      -0.15842765       0.29623586       0.16766151       0.07448647       0.04817949
H       10.59815568      17.54228530      11.34530041       0.77737921       0.18216804       0.14423589      -0.08575155       0.04803458      -0.17467972
H        9.02643721      17.48565714      11.66277938      -0.53775536      -0.17789640       0.37939673      -0.00550893      -0.18806178      -0.05644426
N       16.24693123      23.57828610       3.94056004      -0.14376619       2.11443921      -1.06941895       0.63715087       0.71969356       0.09365002
C       14.86162244      23.01585806       3.87492219       0.17090202      -0.80388791       0.02431351       0.30014001       0.05305920      -0.13407638
H       14.65461044      22.28495297       4.74469276       0.20789407       1.45878263      -0.81478894       0.21567609      -0.42499528       0.09330807
H       14.89814985      22.35792113       2.99309414      -0.45352655       0.27359815      -0.13527781      -0.01961438      -0.16786600       0.12467559
H       14.20463133      23.90356020       3.73486020      -0.06178851      -0.88692711       0.32385622       0.13202165      -0.04853965      -0.23814011
C       17.28389449      22.52945231       3.73953282       0.68253934       1.57206251      -0.49712092      -0.28811594       0.00743908      -1.31246088
H       17.21409831      22.03654160       2.76163684      -0.22998121       0.09496883       0.16745972      -0.05077867       0.15795024      -0.11164748
H       17.20750598      21.88615622       4.56504585      -0.25955497      -1.46146565       1.05784189      -0.02478587      -0.30186020      -0.27495267
H       18.25261803      23.02705146       3.86276940       0.12407863      -0.03690647      -0.32540510      -0.20926576       0.17551165      -0.12174774
H       16.36683556      24.05546731       4.88445521       0.14881706      -0.17003673      -0.71835360       0.01237928      -0.09538987       0.03801604
H       16.33626599      24.41587760       3.16545228      -0.10823393      -2.04039011       1.84907817       0.01075109       0.10654843       0.12804234
Pb       6.48611930      19.55261911       6.39134642       0.09181989       0.21344748       0.06257297      -0.77979534      -0.26218551      -1.77320679
Pb      13.06868104      19.93140345       7.19490737       0.17231553       0.48978366      -0.05080884      -1.09308273       0.47400533       0.45376119
Pb       7.24881237      19.79223587      -0.34390394      -0.50072487       0.03953926      -0.05741242       4.08749533       2.24724411       1.45626411
Pb      13.50323000      19.53324764      -0.07107724      -0.09715442       0.31876055       0.09504337       1.89281326       0.90354938      -1.76910176
I       10.17353958      20.21771057       6.35749907      -0.23483767      -0.10097921       0.10030514       0.06803370       0.78648955      -1.34302075
I       16.65424341      19.63566871       7.18153319      -0.06181854       0.08242282      -0.02257372       0.54549241      -1.04023566       2.12605071
I       13.54659984      17.09751126       7.23096714      -0.19258262      -0.53358510       0.02315171      -0.31418798      -0.30689744       0.39195960
I       13.23183634      23.43247852       7.15821542      -0.05314979       0.08845438      -0.17384500      -2.60344549       1.06169669       2.98697107
I       16.55185424      20.13739818      -0.00171444       0.25666909       0.01744407       0.08220731       1.32809052       2.69777170      -2.65767742
I       10.03853003      20.54193279      13.41964698       0.25369337       0.07542813      -0.08846980       0.35323576       0.35441281      -1.38252450
I       13.61657048      23.10455196      13.74456018      -0.01464359       0.19134877      -0.04799083       1.89978509       1.70368728      -0.05822152
I       13.34513447      16.49073800      -0.56793602       0.00832594      -0.04235312      -0.03738025       0.80855668      -3.05425378      -0.31902199
I       19.70738130      19.35316372      10.23384877       0.12302420       0.13159949      -0.05678935      -0.56804553      -0.63105604      -0.03343991
I        6.66071508      19.25489081       3.32547919       0.14086889      -0.04531416      -0.12947472       2.78746314      -0.30220017      -1.68497418
I       13.37097750      19.32715548       3.09959945       0.03847570      -0.03899182      -0.05447107      -1.23810189       3.83301680       0.62873317
I       13.00553864      20.13489343      10.32239852       0.06590575       0.02468731      -0.07743421       0.70902304      -0.71839770       0.65331228
N       15.25116430      16.44724780      17.39386457      -0.63697926      -1.10104221       1.67906201       0.57089989      -0.84914871      -0.46742860
C       16.50470910      16.16598337      16.69657667       0.64183805       1.78193968      -0.24745325      -0.41060434      -0.57656385      -0.32432809
H       16.45874826      15.36332540      16.00159094      -0.50009439      -0.81966372      -0.66553591       0.14789642      -0.12840442       0.13885264
H       17.33879734      16.00507915      17.34693226       0.34775415      -0.41955057       1.01386440      -0.05435432      -0.12458312      -0.13876318
H       16.77669127      17.10276384      16.21429224      -0.04188314       0.11305277      -0.60531932       0.08204915      -0.00458064       0.03806589
C       14.14547591      17.02162556      16.57975284       0.56844409      -0.63988584       0.09190508       0.30614485       0.38274441       0.87785119
H       13.78146516      16.24551213      15.95965550      -0.35857250      -1.09808469      -0.89628004      -0.16908152      -0.19778621      -0.26733169
H       14.51384658      17.80376089      15.92555274       0.29866762       0.46468969       0.14020384       0.00933438       0.14654967      -0.17324271
H       13.32255206      17.29270150      17.21088525      -0.31550952       0.52415440       0.58341491       0.13877663       0.01896891       0.01282020
H       15.41210485      17.09840309      18.17208142       0.47775322       0.43289608       0.04864660      -0.12488197      -0.15384409      -0.18361217
H       14.99720284      15.56413801      17.98871343      -0.13843520       0.83690680      -1.02482080       0.20630805      -0.31217689       0.11890448
Cs      10.68075069      23.66058532      22.82968427      -0.20483380      -0.26053963       0.14490796      -1.83423698       0.53423497      -0.85100218
N        9.18785233      16.47453856      22.76182130      -0.75289987      -1.68459222      -0.30679932       0.83472009       0.00588670       0.20695152
C       10.17915584      17.53697510      23.04891591      -0.03027284       0.03575194       1.02368349       0.21279804       0.39870263      -0.04630381
H       10.22451908      17.65628123      24.17086151       0.26953174      -0.14600871      -0.93649247       0.04807561       0.12583269      -0.09377187
H        9.82735131      18.46177664      22.63159438      -0.33312222       0.72583746      -0.23941009      -0.17144053      -0.23501357      -0.06587891
H       11.15545116      17.33447038      22.60909893       0.10420945      -0.45219903      -0.02131765      -0.02883655      -0.26015037      -0.17742280
C        9.77708636      15.05824964      22.87553742       1.00181074       0.37337941       0.52772857      -0.78478973      -0.28337833       0.42051355
H       10.64351777      15.00449596      22.15540533      -0.70612361       0.05969745       0.63321531      -0.15932549      -0.12524214       0.25319280
H        9.10207680      14.18868823      22.72535283      -0.18543854       0.79820220      -0.25499254      -0.04430004      -0.12000201      -0.01162640
H       10.13513407      14.96541349      23.93376637       0.02784336       0.11553668      -0.73666392       0.15986736       0.01870377       0.18111572
H        8.63771982      16.54958066      21.83212540       0.75040970       0.26228294       0.50794087       0.18259641       0.12271424       0.24328544
H        8.45059478      16.56461176      23.48459642      -0.02113688      -0.06996635      -0.12244469      -0.06943282       0.05900871      -0.42020442
N       17.89936702      23.73111654      16.17391887       0.48184168      -1.19083609      -0.50762163      -0.22392392       0.53354209      -0.26298363
C       16.94091112      24.83695792      16.23254087      -1.01114805       0.06977295       0.45022814       0.56654566       0.63189589       0.02646458
H       16.11004249      24.67273185      15.50766167       0.33401071      -0.21354504       0.36421496       0.19186677      -0.18644709      -0.07546829
H       17.46132476      25.75244861      15.88800219      -0.28601150      -0.15473115       0.59167976      -0.03946061       0.35111272      -0.00822060
H       16.52808634      24.82185008      17.26444988       0.19533976       0.53862165      -0.48119401       0.08141418       0.14048386      -0.03538172
C       17.45785380      22.33631727      16.67888944       0.23896490       2.38060748      -0.10783044      -0.32555701      -0.80208820      -0.36053017
H       16.56801828      22.06178572      16.15457255      -0.40034355      -0.50484963      -0.82946298       0.05956225      -0.03865121       0.11652592
H       17.16085620      22.55789781      17.67875181      -0.21534974      -0.13612619       1.19465153      -0.05700199      -0.05847845      -0.00489716
H       18.31459620      21.69117941      16.65988610       0.27781036      -0.62079404      -0.26353712       0.14538008       0.00507598      -0.07212076
H       18.81199868      23.96400715      16.58401927       0.16114857       0.35967127       0.86267018       0.32457170       0.00759235      -0.30521677
H       18.20175358      23.71495011      15.20262541       0.03284009      -0.69456585      -1.16231307       0.19738069      -0.37703566      -0.17912091
Pb       6.68163264      20.02666565      19.99443623       0.22425139      -0.01550330      -0.09851641       4.46944000      -0.50142294       0.74000356
Pb      13.21628291      20.31036412      20.03782921      -0.10049800       0.15231963      -0.06908589      -0.55858205      -1.38493604      -1.51942459
Pb       7.12230847      20.10333327      13.32261781      -0.59318232      -0.14801299      -0.10784018       1.37312904      -0.34556905       0.54026201
Pb      13.16461432      19.99308167      13.49352693       0.32982762       0.06248259       0.15586433       5.06624781      -2.66789714       2.87329285
I       10.01874017      20.97125526      20.09490754       0.22028414      -0.03576698      -0.02013945      -2.92528476      -1.01379735       3.29645950