560
Lattice="25.918867010757232 0.11459375109112976 0.2273666356282999 0.08285505068164432 25.93201167269208 -0.07384184989152849 0.23498333413834024 -0.08361394459450716 26.10180224611897" Properties=species:S:1:pos:R:3:forces:R:3:momenta:R:3 energy=-2164.227294921875 stress="0.0007157445070333779 0.0004032821161672473 5.143072121427394e-05 0.0004032821161672473 0.0005731621058657765 -0.0002379897341597825 5.143072121427394e-05 -0.0002379897341597825 0.0013657782692462204" pbc="T T T"
N        9.91912066      10.19697828       4.14665062       1.11627025      -0.10493339       0.18750675       0.64829661      -0.00851221      -0.12599842
C       11.17326981      10.11825369       3.28694825      -1.83062519      -1.38337373      -0.92243171      -0.10810631       0.59266969      -0.46632998
H       11.04667649      10.68476348       2.34498989      -0.26093420      -0.11921407       0.37473275       0.23445639       0.10920771      -0.13184388
H       11.36907640       9.04678358       3.07214138      -0.20989379       0.42530031      -0.04800892       0.09466638      -0.35230383       0.14391138
H       11.97233052      10.48764517       3.83975155       1.55217309       0.84381817       1.14862164      -0.15201267       0.18994924      -0.10955398
C        8.65490213      10.06960492       3.40267803       0.42407402       1.82439885      -0.44500654      -0.17000010       0.17322504      -0.68360712
H        7.94095587      10.39296008       4.13371610      -1.05823067       0.21642359       0.14321478       0.14170961      -0.14176410      -0.02501457
H        8.44011918       9.07742252       3.10847743       0.08206344      -1.29947872      -0.41207845      -0.01568573      -0.26380205       0.01115241
H        8.69190100      10.77631212       2.53134812      -0.11752889      -0.51639762       0.59706720       0.29357196       0.05350874      -0.10872340
H        9.90375514      11.12636132       4.66341530       0.07592370      -0.38976716      -0.20959783      -0.36944729      -0.01939508       0.07338424
H        9.91576402       9.45487134       4.92477445       0.25418175       0.42536855      -0.62869569       0.25678199      -0.19133650      -0.19668073
N        2.77974328      16.47447083      11.02106606       2.75134855       0.48383934      -0.93816069       0.09376364      -0.05837047       0.49352936
C        3.38242759      15.11990917      11.39581597      -1.03708097       2.06762162       1.99026117      -0.99918322       0.23018041       0.11851676
H        4.35372956      15.03192269      11.00011755       1.34908105       0.13928537      -0.64851514      -0.18075195       0.12856274       0.12368210
H        2.78134572      14.32970174      11.08806722      -1.39146445      -1.29405751      -1.21242543       0.02664789      -0.26658892       0.19828116
H        3.39980704      14.98957165      12.50032262       0.18271171       0.47676558      -0.33681327      -0.09784066       0.16873860      -0.21934543
C        2.89538548      16.66408053       9.49149671       1.37259989      -1.37584994       0.68027019       0.28905824      -0.08816512       0.83539247
H        2.51471194      15.75007763       9.02363151       0.02135115      -0.15651696       0.10319384      -0.09248299       0.11083151       0.04410573
H        3.94901629      16.80751003       9.13989542      -0.55896631      -0.08754810       0.63726426      -0.09896204      -0.10071719       0.07708237
H        2.30559040      17.45444111       9.13649429      -0.96252557       1.50974534      -0.21316517       0.02149978      -0.18809993      -0.07064056
H        3.30950608      17.24766027      11.58354562      -0.72686921      -0.95396935      -0.95413649       0.10103014      -0.12292662       0.27240160
H        1.80272957      16.63307205      11.23609445      -0.97972641      -0.48546111       0.72187576       0.10338655      -0.20112261      -0.00287662
Cs       3.65384747       9.68597676       9.93698317       0.02623059       0.02848054       0.09104046       3.94749638      -2.50815695      -1.08228510
Cs       9.78591412      15.82626421       2.74439384       0.02792089       0.03529785      -0.03910679      -1.91851630      -0.60502892      -0.06438887
Pb       0.18591912      12.89233927       6.17175575       0.01436561      -0.23417280       0.06576512      -1.05568373      -0.84803913       5.07801867
Pb       6.26173482      13.09718740       6.89871158       0.15393603       0.06778731      -0.10336289      -0.13015497      -1.75576633      -0.58237598
Pb      -0.20947965      12.66588539      -0.22781706       0.05913567       0.19736377      -0.03702952       3.09619209       0.35002540      -0.23805597
Pb       6.47572845      13.57751275      -0.14715073       0.06103452      -0.19824732      -0.02373214       1.36324931       1.75051569       1.65976331
I        3.18404174      12.98873532       7.20992758       0.19424616      -0.05021471       0.10690169      -2.03473347       2.59537922      -0.99549041
I        9.47334183      12.77689361       6.47620439       0.12706654       0.11415186       0.09837810       1.31520269       1.71356602       0.43256210
I        5.34992358       9.36111815       6.31132411       0.00952543       0.30456311       0.07645300      -3.00861279      -3.69052642      -2.29369272
I        6.95564949      16.45749127       6.83944664      -0.03821497      -0.25419710       0.00104882       1.83935011       3.38342141      -0.74071542
I        9.59133969      12.96650215      -0.01847116       0.12323157       0.02240483       0.04221817       3.45294850      -0.98202753       1.65404498
I        3.58427014      12.48612613      13.57431779       0.10790746      -0.05414459       0.13086218       2.65023772      -0.87743690      -0.25374153
I        7.16467704      16.35587095      12.91897970      -0.02762401      -0.14176275      -0.09229375      -0.59864756      -1.29508551       2.65309864
I        6.14718302       9.98013991       0.02630077      -0.07663909      -0.05229413      -0.05656757      -0.25842784      -3.91383669      -0.07058298
I       12.86637690      13.38933939       9.84840509      -0.03117784      -0.07757627      -0.14813348      -0.38363795       0.68251272       0.12297234
I        0.52651925      12.62218793       3.06875075       0.05075949      -0.07980185      -0.11838556       1.00375013       0.26506146      -1.46439342
I        6.45464929      13.40149192       3.09201927      -0.00873739       0.03336090      -0.00641084      -0.68468105      -3.14000180       1.25595239
I        6.79235952      12.72830227      10.04787687      -0.03538877       0.01579025      -0.26765525      -0.76101759       1.36841259      -1.15141491
Cs       9.83642644       9.44489106      16.44491766       0.11989803       0.09540223       0.08983367       0.28538957       1.66467349      -2.20330311
N        3.62993852      16.01973181      23.68502808       1.76339206      -0.40220184      -0.54442431       0.46954521       0.10085112      -0.57553178
C        2.42868804      15.74076727      22.89717868       0.07252967      -1.76024872      -0.33190818      -0.33979132       0.84305618       0.46064293
H        2.18953740      16.48057010      22.16244353       0.34442709       0.89925547      -0.56954375      -0.13035466       0.05704648       0.03024253
H        1.55053304      15.65950749      23.52999679      -0.14989787      -0.27217662       0.39084288      -0.01254395       0.01109393      -0.10581847
H        2.67566656      14.78011759      22.39058473      -0.60886590       0.37702706       0.05091046      -0.19909199       0.05339224      -0.18175168
C        4.84180548      16.37291764      22.89148803       0.83796288      -1.84598617      -0.85760690       0.01274049       0.74194082       0.48415654
H        5.10124185      15.45399278      22.33618887      -0.32942383       0.01795869      -0.21247930       0.12892276      -0.30298953      -0.00329753
H        5.79367658      16.49545303      23.44454229      -0.71873903       0.64052929       0.43392429      -0.01572783       0.12495259      -0.27515435
H        4.63361085      17.11601137      22.14103191      -0.26753251       0.73316289      -0.01706821       0.00570806       0.03718147       0.18735630
H        3.90426351      15.21021246      24.29194333      -0.43392501      -0.40168266      -0.10435635      -0.03982206       0.20508501       0.10819895
H        3.48867591      16.75077508      24.30929949      -0.73751595       2.15972334       1.66711256       0.00426343      -0.08859728       0.13998073
Cs       3.74160604       9.06486939      23.11896708       0.06491811       0.17923425       0.01386737       1.77919077      -3.40482204      -3.11934115
N        9.63397629      16.44005514      17.18599275      -1.29902252       0.94397335      -1.12791493       0.24582419       0.37977414       0.42080882
C        9.46355398      15.19642049      16.37997663      -1.85568668       0.25666605       0.35960679       0.75010030       0.22897975       0.01654158
H       10.41286902      14.95709635      16.00773879       1.52494953      -0.76539858      -0.66070069      -0.28428791      -0.25435514       0.11976729
H        8.81240068      15.46191523      15.54015395       0.03224672      -0.01743367      -0.05916483      -0.04123923      -0.15354232      -0.14614333
H        8.96062404      14.36762999      16.92176871       0.54804919       0.39338125       0.06545958      -0.28804681      -0.00494385       0.18734860
C        9.61104108      17.66878922      16.26154009      -0.66511457      -0.08542675      -0.54813870       0.28550410      -0.22085039      -0.71385627
H        9.68404381      18.63090004      16.80778615       0.34122425      -0.55257547       0.02942312       0.12904805       0.12979410       0.00626745
H        8.61868686      17.69170037      15.74769832       0.35745454      -0.19507019       0.42484578       0.17553708      -0.01492828       0.00731473
H       10.34653243      17.58489639      15.41640679      -0.09598564      -0.08759116       0.96863199      -0.09469192       0.22217606       0.13510725
H       10.48316790      16.39090857      17.71627933       1.15392686       0.08671282       0.62896210      -0.09204227      -0.05198807       0.18566504
H        8.86266401      16.52800892      17.89582528       0.02216926      -0.00716604      -0.06276360       0.16758148      -0.13560062       0.17852846
Pb       0.27348047      12.73940829      19.18820963      -0.11471856       0.04696552       0.10440954      -1.93982728      -0.15527568       0.35984546
Pb       6.52027789      12.65665550      19.45649456       0.17501893       0.04560245       0.29532755      -1.12454242      -0.09220783       0.13247058
Pb      -0.44902240      12.43973884      12.90959762       0.30984147       0.57490706      -0.04520884      -0.84932949       1.94191733      -0.71023839
Pb       6.66671264      12.68131882      13.29277764      -0.04721622       0.02576438       0.04830079      -3.42265773      -0.48476661       1.20086801
I        3.37346037      13.16619596      19.75919869      -0.09898529       0.04593541      -0.10280741       1.08595970      -0.55685494      -0.13246226
I        9.71542179      13.01526577      19.65269568       0.25600341      -0.21441138      -0.03688292       0.70129750       2.12079668      -0.49711195
I        6.45011691       9.61953766      20.16113501      -0.02166856       0.02496798       0.03820089       1.35273500      -0.48582499      -0.02808342
I        7.43025706      16.44838679      20.04411338       0.00561168       0.20537798      -0.08056706       1.02327821       1.45354764       0.12967195
I        9.80012107      11.77735853      12.91425534       0.09805739       0.11109702       0.06591278      -1.64538924      -1.15533108      -0.56729915
I        3.31005074      12.98516769      25.37083373       0.07622490      -0.02342015       0.16590786      -0.22559825      -0.41367627       1.25276553
I        7.49039460      16.73609341      25.65364875       0.03155533      -0.22615291       0.18789736      -2.83327226      -0.30099164      -0.09790517
I        6.05389063       9.57889664      13.05721135       0.01197772      -0.05755334       0.09895074      -2.77873042       0.81614825       1.08095811
I       13.03091747      12.94165230      22.78217040      -0.03653798      -0.07459080       0.10875223      -1.45260661       0.80625320      -0.39136055
I        0.51229894      11.97770910      16.10730731      -0.17664881       0.08337088       0.29553891       2.86192550       2.20207981       0.23263487
I        6.77322642      11.84729183      16.50132059      -0.02092095      -0.05341180      -0.11269328      -0.82126646       0.86155444       1.63092073
I        7.24903255      13.06723711      22.77029522      -0.04747227      -0.10303907       0.13247940      -2.95544075      -3.18138077       3.03929116
Cs      16.34428458      16.01980007       3.05316158       0.02752797       0.09896171       0.24103468      -0.21930946      -0.84257325       0.01239206
Cs       9.91213154      23.06017057       9.84933577      -0.04695960      -0.11549055       0.03275513      -1.57726391      -2.57716129      -1.43514227
Cs       9.48978259      15.62269835       9.51006454       0.10479955       0.11773790       0.13020593       2.29123658       1.56774638      -1.29915370
N       14.95024314      22.23862105       3.53606562      -0.11352159      -0.76151087       1.76080252       0.12105921      -0.45863742       0.63551294
C       16.39766421      21.85689887       3.42303017      -0.59419698       0.36609844       0.35395920      -0.22647854       0.87853763       0.72499718
H       16.86727332      22.69319537       2.94825873       0.57328534       0.53381134      -0.56541061       0.19677342       0.12906146       0.04646889
H       16.52341310      20.95566059       2.84021538      -0.01994479      -0.43254485      -0.10664015       0.27177531      -0.19707596      -0.01861746
H       16.83116742      21.78572516       4.43246458      -0.16798886      -0.20164237      -0.08490461      -0.21346108       0.19845909      -0.00031161
C       14.83169201      23.63494184       4.10952573       1.58912753      -0.72831517      -1.57699149       0.50608164       0.11673714       0.06529611
H       13.90180629      24.04570888       3.89263793      -1.77683915       0.71408943      -0.08704009      -0.00255131      -0.03251512       0.12180058
H       15.53808846      24.28736499       3.58675169       0.30143031      -0.19092523      -0.11782694       0.06626748       0.17727702       0.35827389
H       15.07783611      23.64271765       5.14121810       0.16733462      -0.22990487       1.25589125      -0.26947150       0.14069998       0.11908814
H       14.49453887      21.54439470       4.21711800       0.26353913       0.60646275      -0.67605195       0.16597560       0.11993571       0.02155949
H       14.37885650      22.05343014       2.65986990       0.47157783       0.60069285      -0.00261477      -0.24869941       0.09571873       0.05694843
Pb       6.95948533      19.58956086       6.42889777      -0.24113185       0.07410648       0.28937621      -1.33168878       3.03603966      -3.72221879
Pb      12.97265146      19.17184236       7.22215110       0.08817363       0.21825801      -0.09927099      -3.21403524      -1.62283074      -3.51301340
Pb       6.29955348      19.77174732       0.48406628       0.13141294       0.10419738      -0.53632817       2.44101976      -1.21791679      -2.06578649
Pb      13.00715345      19.64565974       0.56923669      -0.28090268      -0.08364709      -0.04290825      -0.39579390      -5.42596875       0.44353921
I        9.79166852      19.73392635       7.62263249       0.38237308      -0.02992793      -0.06293461       0.17046015       1.36434205       1.66558884
I       16.32649249      18.35933551       6.74407533      -0.19607177       0.03157181       0.10183661      -3.02151329       0.77518641       1.94850441
I       12.28943015      16.22503986       6.66021118      -0.14708758       0.14830250       0.02874147       0.16767075      -1.26079708       0.35525756
I       13.57384742      22.58337838       7.56158714      -0.18346600      -0.07982276      -0.02644002       1.73217847       3.34563067      -0.99325710
I       16.06738991      18.66867647       0.38676134      -0.04708925       0.08617639      -0.12073075      -1.27538561       2.66520354      -1.01513924
I       10.22294101      19.70622246      12.53712692      -0.58024609       0.05133517      -0.02955434      -1.11067079      -1.03072892      -0.79841965
I       13.41385514      22.59139575      13.11792263       0.09580463       0.31527644      -0.04655231      -0.20453351       1.79439928      -1.72426637
I       12.95474687      16.44603473      -0.13450803      -0.28631524      -0.09737365       0.03276732      -3.43361364       1.91970464       2.66430016
I       18.78300988      19.47207499      10.23800083       0.06075379      -0.00661020      -0.07137988       1.36525849       0.27366693      -3.16652839
I        6.21383541      19.18224303       3.41128394       0.07785445      -0.25717905       0.16461888      -0.09062647      -1.01771417      -2.06551073
I       13.01537233      19.39792198       3.68142686      -0.10532155      -0.20600606       0.19563018      -2.77758471       0.35644587       0.21448671
I       13.41358436      18.88298039      10.29496160       0.04768371       0.07393863      -0.13871803       4.50849808       0.16138594       1.35203900
Cs      15.43398708      16.00279749      16.13230131       0.02492018      -0.05071213       0.04667607       1.26493291      -0.40725490      -3.45737349
Cs       9.48118855      22.99891354      22.88244984       0.07840114       0.20281289       0.12519588       0.21865216      -2.35647859       0.34240299
Cs      10.22063026      15.98424747      22.44825762      -0.00561064      -0.11944932       0.16745875       3.01282689       1.63001560      -1.20655132
Cs      16.19157868      22.06864117      17.03386922       0.05274280      -0.06189161      -0.19674452       0.90187807      -1.42234217       2.18560917
Pb       6.83124127      19.72735936      19.91814908      -0.24229755      -0.15904424       0.02694438      -1.27719754      -0.40421380       0.40375023
Pb      13.33166509      19.43809116      20.30204195      -0.03586430      -0.06356128      -0.41117342      -2.00555553      -0.89279421       1.14642329
Pb       6.86827619      19.38617719      12.92067151       0.13510654       0.10681994       0.35796845       0.39226710      -0.78620977       4.32593009
Pb      13.14669099      19.67667962      13.51322724      -0.26630366      -0.37154228       0.11727562      -1.28661428      -0.49539860       1.64103435
I        9.83457566      20.19058128      20.51787821       0.27000232      -0.09879647      -0.14716923      -1.06650250      -2.16024040       0.43833151
I       16.33155261      18.40547683      19.15399889      -0.08839194       0.10029749       0.08107908      -0.99045930      -0.28669888       1.55562050
I       12.80839705      16.07919497      19.75998437      -0.06830919       0.08540709      -0.13275471      -1.06828076      -3.32351009       1.96137009
I       14.16704680      22.54944084      20.07187062      -0.08321912      -0.21243886       0.04540312      -2.09617654       0.30247235      -2.22157335
I       16.09143016      18.99550717      13.76642402       0.42080755      -0.10172113       0.01220526       0.63956035       3.38151313       3.61761083
I        9.86346384      19.82663892      26.80313578       0.04825245       0.03303883      -0.01305651       0.28926763       1.50322929       1.12431183
I       13.43281379      22.74333360      26.75155089       0.04374236       0.03388953      -0.36535928      -2.98421002      -3.66525881       1.27338704
I       13.00869721      15.80251156      13.14427268      -0.04537946       0.16858592       0.11743011       0.98168628       0.53985843      -1.30370608
I       19.58795345      19.10665233      23.48752980      -0.04567341      -0.07289831      -0.23961068       0.27531264       1.48118841      -1.05320219
I        6.03837334      19.82918989      16.81923637       0.17197242       0.12023596      -0.00466897      -0.05486111       0.49044338      -1.23427646
I       13.03654779      19.01874977      16.82581823       0.06035846       0.06468184      -0.08245778       1.60143412       2.72129712      -1.38940176
I       13.15025384      19.97084967      23.24816895       0.01345472       0.03315258       0.26083808      -1.94559029       0.92415397      -1.14424986
N       10.35777966      23.22256302       2.66758871       0.23211571       0.67259813      -1.79493985      -0.58434302       0.39290119      -0.13277319
C       11.36652057      23.47320217       3.70211431       0.54067706      -0.85328469       2.32478264      -0.32009392       0.51984173       0.02166347
H       11.25958800      22.67296537       4.47879615       0.11627182       0.21692946      -0.53696440      -0.23608167      -0.02620866       0.12216370
H       11.19412036      24.40791871       4.27078816      -0.22467338       0.05196175      -0.52075370      -0.15968274      -0.14041995      -0.08001389
H       12.43594874      23.45530289       3.34595852      -1.23633429      -0.08709358      -0.17308883       0.11143740       0.07692307       0.02035609
C        8.91544483      23.09718228       3.03740059       0.23186946      -2.10861782       1.87609629      -0.66582402       0.34849196       1.29392283
H        8.27960957      22.73887830       2.22073948       0.24021273       0.35102792      -0.28230113       0.24835527       0.10377470       0.01714989
H        8.51722932      23.96264317       3.54587102       0.06048038       0.65596068      -0.06562070      -0.28669748       0.01839858      -0.14250224
H        8.92673037      22.25226273       3.79792988      -0.23303710       0.80442332      -0.62967385      -0.34774537       0.41653785       0.16088935
H       10.60194864      22.33236698       2.15358278      -0.04823671       0.66522510       0.04529270       0.25271526      -0.11634784      -0.14828482
H       10.48671174      24.02918530       1.99936272      -0.39223072      -0.66533711      -0.15572086       0.09905621       0.17898901      -0.08552650
N        3.63933403       3.01103134       9.20200993       0.30953262      -1.56405444      -0.56397116       0.02204892       1.15620505       0.63703337
C        2.21799579       3.42561545       9.48675022       1.14839330       0.43307567       0.16468019      -0.04175370      -0.12705889      -0.33186454
H        2.29345972       3.81601445      10.50585502      -0.54551166       0.16279676      -0.08547292      -0.07684737      -0.09974728       0.19337207
H        1.52152970       2.58799209       9.39770305       0.09305374       0.07260099      -0.05808263      -0.08872626       0.04227008      -0.23433014
H        2.09390428       4.22098776       8.74257032      -0.90064487       0.05829346       0.28265969       0.21708205       0.02616514      -0.27915597
C        4.60817244       2.93837941      10.39243951      -1.48954473       0.95982856       0.23402671      -0.72516024      -1.34341289       0.16274212
H        4.38661910       3.91523805      10.89939797       0.41833300      -0.88446094       0.10136598       0.11824720       0.04329797      -0.16194130
H        5.59670372       2.96879480       9.98156243       0.78542850      -0.12334333      -0.23965641      -0.01345039       0.03676757      -0.09622315
H        4.44821353       2.05094591      11.06874429      -0.18175310       0.73865402      -0.78844570      -0.20048027       0.13770370       0.27286742
H        3.99541042       3.65275805       8.47481907       0.38491655       0.17011230       0.26783276       0.26793438      -0.22862494       0.38374848
H        3.62278056       2.11676004       8.65859753       0.10101053       0.09443280       0.53370928      -0.16706919      -0.16672788      -0.13531831
Cs       3.94501891      22.03823507      10.26888742      -0.19331053       0.25141689      -0.24574016      -0.89991583       0.90202331       0.79307142
Cs       9.33050337       2.80490821       3.80297509       0.10049686       0.14141702       0.06324832       1.42939229       1.15214049      -1.10221128
Pb      -0.00195511      -0.00068273       6.51619129      -0.25239972      -0.11882725      -0.09200180       0.90267540       2.18364120       2.18112770
Pb       6.87524240       0.22883777       6.69297705      -0.37619386      -0.43268359       0.09074133      -0.43322967       2.44497438      -4.70883411
Pb      -0.69015895       0.04278436      -0.28169219       0.18095186      -0.00377760       0.10876848       3.16982149      -0.47101544      -0.90144587
Pb       6.03525632       0.60610358      -0.00933431       0.23440179      -0.29612734       0.06048762      -0.72312842       0.72262075      -0.70514897
I        2.98006530       0.00499607       6.36617223       0.31489782       0.07010433      -0.05581239       0.98653575       1.18010704      -2.74482407
I        9.90891755      26.28499770       7.45606986      -0.06318688      -0.04468717      -0.00880519      -2.10843725       0.39000924      -1.46694789
I        6.84890168      22.84755957       6.82629236       0.05784909      -0.04454027       0.00885572      -2.52840730      -0.30894566       0.43761643
I        7.07119652       3.19314110       7.26115187       0.03157044       0.34213836      -0.02972014       0.94214326       1.15091806       0.32192943
I        9.60769138      25.81731993      -0.03320968       0.15409629       0.02099469       0.04133560      -1.32081814      -0.57516162      -1.87642849
I        3.18835009       0.55230980      13.26923269      -0.05713972      -0.14534598      -0.04895233       0.01835962      -0.04326222      -2.29233176
I        7.39662268       2.87761938      14.00678024       0.13816916       0.27905707      -0.27581898       0.13066307       0.69166528       0.30472646
I        6.06030170      23.07753419      -0.06232826       0.07412738       0.11048526       0.08209216       0.19586411      -2.47374783       0.97049144
I       12.83665449      -0.31192257      10.32613451      -0.16927920       0.07240453      -0.22532421       4.44853722       0.58430934       0.98142631
I       -0.25658912      26.78463303       2.86519227       0.27236581      -0.13250239       0.12586496      -2.21983909       0.26091850       1.02992017
I        6.41607054       0.42676852       3.40786453      -0.01226819      -0.03585259       0.18228953      -0.00700852      -0.03748931      -2.84299009
I        6.36061087      25.35125501       9.88546736       0.03709125       0.03673000      -0.08807771      -0.36469067       1.12901327       0.63375682
N       10.07864035      22.61635145      16.22148011       0.79926374       0.08108402      -0.72383060       0.60377267      -0.46765088       0.21330219
C       11.34617753      22.36566791      16.96458068      -0.70501537       1.23902900       2.02429716       0.44838988      -0.73392396      -1.56761471
H       11.07418008      21.80047544      17.90388266       0.40698065       0.17638988      -0.95342043       0.18152652       0.07460468       0.02122758
H       11.73317000      23.34800733      17.29070050      -0.00329993      -0.20974641      -0.17241469       0.15326424      -0.08704157       0.32006360
H       12.04567884      21.88685959      16.31955650       0.58558545      -0.67852602      -0.41922084       0.09862865       0.01171534      -0.18416728
C        9.12799633      23.56882416      16.85405845      -1.03221941       0.14690071      -0.61910183       0.37919811       0.57078488       0.00298989
H        8.20665692      23.57573354      16.16558662       0.92187197      -0.04186849       1.14806056       0.08993032      -0.27952796       0.13315998
H        9.56226877      24.59596870      16.82196187      -0.03018453      -0.59981320       0.19918388      -0.07286933      -0.04187204      -0.10757392
H        8.91099059      23.23494927      17.90044168       0.06568346       0.23050741      -0.74220031       0.07153153      -0.17619770       0.08750061
H        9.69889957      21.67228366      16.16518022      -0.77907578      -0.14368174      -0.49061753      -0.09559210       0.05015906      -0.08352079
H       10.30466016      22.95216731      15.24274969      -0.30635130      -0.34698256       0.70652972       0.08168738       0.23999655       0.00030078
Cs       3.76859986       3.68941759      22.74431179       0.09993503      -0.09249189       0.08278176      -1.86873741      -2.96557037       0.20724906
Cs       3.71055868      23.09041010      23.26347137      -0.20745619      -0.06597819      -0.06456965       5.90189533       0.58271835       1.16087148
Cs      10.14942266       1.98222693      16.48813122      -0.08286985       0.05218440       0.09464642       2.56979987      -2.04766426       2.22141732
Pb      -0.26596156       0.01832619      19.34786237      -0.14260218       0.13262719       0.03851680       0.89646055      -9.43088746       0.42577310
Pb       6.23551304       0.09451588      19.62563159       0.14474689       0.28298431       0.04465887      -1.71764321       3.15511475      -1.21327131
Pb      -0.09684408       0.07469015      13.10808797      -0.01043733      -0.31280393      -0.04444983       2.77573770       0.85861770      -0.81371106
Pb       6.40327489      -0.13282660      13.19497648      -0.08284120       0.15938035      -0.06728271       2.71254393       2.24000467      -0.73025919
I        3.16425103       0.33769806      20.01371516      -0.06930366       0.17508851       0.06805571      -0.23535278      -0.61426996       3.07204430