480
Lattice="25.832474348676293 -0.11270531976514955 0.0354797831522599 -0.09819994154087437 25.673688077087885 0.05834617348015544 -0.038210635245033354 0.08618523329270576 25.90247404907328" Properties=species:S:1:pos:R:3:forces:R:3:momenta:R:3 energy=-1743.1715087890625 stress="0.0007044847006909549 -1.3340332770894744e-05 -1.4915519386704545e-05 -1.3340332770894744e-05 0.0011036543874070048 8.830731530906633e-05 -1.4915519386704545e-05 8.830731530906633e-05 0.0008094817167147994" pbc="T T T"
Cs       9.87802152       9.12780388       3.15500646       0.05308849       0.14203955      -0.04268741      -2.68808663       0.63040356       2.18382135
Cs       3.69276809      16.18867068       9.62940948      -0.04794283      -0.01700546      -0.15714164       3.44655335      -0.02144443      -1.57505255
Cs       3.42875779       9.98702608      10.22403224       0.03540118      -0.02509559      -0.29309554       0.69458407       4.08581074       0.15202107
Cs       9.45806984      16.88203838       3.02103586       0.10470251      -0.22883969       0.12208840       0.23434685       0.66259478      -2.40758163
Pb       0.24677450      12.85754587       6.55376474       0.01531255       0.01690044       0.14083422       1.51221138      -3.16677083      -1.74202064
Pb       6.73597020      12.73762576       6.50946803      -0.32120680       0.15543985      -0.30637060       1.47209666       1.38852389      -2.59314748
Pb       0.67462795      12.88237593      -0.20471089      -0.19146405      -0.15280336       0.20009983       2.00811092      -1.75193565       2.39751950
Pb       6.78374974      12.81868256      -0.14593269       0.16954706       0.03416696       0.12866857       1.45373378       2.58034717      -3.84610338
I        3.35618058      13.59593166       6.56608379       0.01520307       0.00532542       0.19786399       3.18390039      -2.04294075       3.09518817
I        9.48748960      12.25532509       5.42148841       0.36492513      -0.10876670       0.08069464       2.56300051      -0.34321291       1.72720630
I        5.89089338       9.50260072       6.39565566      -0.07250699       0.42611105      -0.06476106      -2.11387030       1.66629160       0.76840988
I        7.33794894      16.29071318       6.46231861      -0.20553745      -0.30526356      -0.05061693       1.69832905       1.55855167       0.96824677
I       10.08664608      12.44573407       0.82118257      -0.09320541      -0.04073295      -0.08100279      -2.00354567       0.44328350       4.44525331
I        3.08923096      13.46722646      12.06907208       0.05056328      -0.09528891       0.11395986       0.15440283      -2.04850148      -1.42128775
I        6.15619760      16.06743383      13.32373731       0.05401260       0.10951916      -0.07468439      -1.37280777       0.70778237       0.37541068
I        6.20704547       9.59074559      -0.15432368       0.00320344       0.19547997       0.00022820       0.66491408       0.44352148       2.62345579
I       12.99211946      13.78776042       9.13513049       0.14813624      -0.20796265       0.39291781       0.83671164       0.61226025       0.96275212
I        0.56110499      12.19807967       3.64503234       0.15082958       0.14169563      -0.26527351       0.90292441       1.51948097       2.30477555
I        5.82235057      12.88024666       3.22486988       0.21835724       0.00250430      -0.15660443      -0.78380742       1.22304921       1.67028051
I        6.62044642      12.38679486       9.51416597       0.00635617      -0.04672247       0.38460631       0.01422563      -2.75337613       0.26354684
Cs       9.41093815       9.80967151      15.96841613      -0.06802050      -0.01454520       0.10432713       2.25269992       1.91781755       0.77992357
Cs       2.87700041      16.45656434      22.88148523       0.11232600      -0.08051698      -0.17694783       0.91506267       3.17370464      -0.38282134
Cs       3.77150690      10.15083706      22.40368420      -0.01272048      -0.10171229       0.05178063      -0.52970113       4.20951545      -4.11807136
Cs       8.91547688      16.38509468      16.01021547      -0.00765800       0.03913993       0.07053006      -1.36920457       1.57509101       0.71948727
Pb       0.37458694      12.85953220      19.24942920      -0.16728875       0.19901578      -0.08803877       1.12353675       2.87233712      -0.10410939
Pb       6.60451160      12.68984295      19.42524046      -0.02155113       0.13776611       0.05138903       2.60620240      -1.01215962      -1.93209559
Pb      -0.04104362      12.63505773      12.92224731      -0.10100857       0.63495081       0.13506898      -1.76136980      -2.05751341       3.10063929
Pb       6.21697367      12.93953369      12.95207824       0.04149648      -0.13139889       0.01974698       1.22806507      -3.45228940      -0.06846871
I        3.31261166      13.42153154      20.20475593       0.24261145       0.15991616      -0.02764733       1.94966510       1.75799575      -1.45580237
I        9.80158526      12.33960125      19.29711891      -0.11544831      -0.14091235      -0.02988768      -1.02527728      -0.92224690      -2.69497419
I        6.06311747       9.21055787      18.68353027       0.12874224       0.56009097       0.01781571       1.34352709       0.88986096      -2.87749892
I        6.78656809      15.90161826      19.54134269       0.01104062      -0.06206477      -0.04507982      -0.24968672      -0.20229351       1.17133578
I        9.55723859      12.05602860      13.02785300      -0.04837412       0.22099678      -0.14438721      -1.16911160       2.42832379      -0.57965592
I        3.71990741      13.26111265      24.97711905      -0.07629086       0.06060114       0.06994429       1.07271370      -0.00932402       1.71321229
I        7.42714726      15.98157215      25.23025580      -0.01577332      -0.10580121       0.27414181      -0.06101294      -3.54899327       0.53543623
I        5.58948922       9.65390803      13.16444576       0.05778473      -0.02240267       0.19238841      -0.22448274       0.13356085       2.82030875
I       12.86842352      13.15397843      22.80840194      -0.10237106       0.10781662      -0.28089748      -0.73583399      -2.04370493       3.07288320
I        1.23281613      12.98544144      16.15400736      -0.15109252      -0.15120953       0.03845790       1.85606405      -0.73572582       1.23829327
I        6.18948919      12.83236502      16.35457948       0.00073655       0.08946766      -0.22497591       0.31703083       0.51245256      -1.23886439
I        7.18677843      12.15396973      22.73902533       0.07738674       0.07061844      -0.14007469      -1.60611856       3.03124474       0.95314472
Cs      16.21496967      15.79488190       3.45530526       0.07056232       0.09402759      -0.08265089      -1.76205987      -2.16972101       0.12487805
N        9.59765419      22.50799159       8.91702793      -0.80350545       0.77812774       1.39446719      -0.03157244       0.15759014      -0.14780876
C        8.44932479      21.91576271       9.75951917       0.16971057       2.26022219      -0.20430609       0.26350082       0.20606968      -0.49318895
H        7.58685340      21.82743037       9.10540838      -0.23530886      -0.41365702      -0.07785651      -0.20084571       0.40401874       0.02557763
H        8.21116193      22.63555751      10.58822072       0.14553128      -0.26703543      -0.75657130      -0.06469711      -0.05044210       0.08750853
H        8.77200689      21.02908548      10.25747071       0.35448729      -0.99436750      -0.02753568       0.17605457       0.12297512       0.13757518
C       10.62191824      23.08675249       9.87429873       0.38436949      -0.73671019       0.38731694       0.16216541       0.00434606      -0.27638247
H       10.17418074      23.47794194      10.82621791      -0.26120284       0.00292996      -0.97973857       0.00769946      -0.02986131      -0.17672422
H       11.23174597      23.87659677       9.39358106      -0.14753172      -0.50810983       0.09210686      -0.11781343       0.21004880       0.14642706
H       11.17326187      22.20949366      10.22487994       0.61053330       0.12387197      -0.14641832       0.12317176       0.26686762       0.10887117
H        9.32794487      23.34867053       8.35300188      -0.62599030      -0.33201030      -0.06886557       0.06171087      -0.01307712       0.04461847
H        9.88380574      21.78573710       8.21025284       0.46883696       0.12197953       0.36691337       0.26640368       0.20125449      -0.11354281
N       10.11658088      16.49343821       9.61341898       0.32637328      -1.22411531       1.23373010      -0.32332196       0.44878196       0.27798976
C        9.66751113      15.04059022       9.66459818      -0.11221936      -0.12324333       0.68182597       0.23269458       0.07134632      -0.09197005
H        9.32705201      14.70891260      10.66457301       0.34682277       0.60146609      -0.01232523      -0.09784996      -0.71936235       0.16067511
H       10.46928335      14.34496077       9.34360061      -0.15708833       0.50745325      -0.08441349      -0.23375898       0.17256050       0.03375494
H        8.79734864      14.93987605       9.03326336      -0.30750824       0.10806450      -0.57553261      -0.14659678      -0.09399178       0.00079867
C        9.07508372      17.49809455      10.00383415       0.65448742       0.57820581      -0.34549920      -0.62606398      -0.42865022      -1.08998385
H        8.76502740      17.24958434      11.03676749      -0.18146316       0.17204108      -0.44082594      -0.27950860       0.18077231      -0.04337154
H        8.28959939      17.46866705       9.24153931      -0.24594480      -0.06425728       0.26146686      -0.21091409       0.15867564      -0.13642776
H        9.59229617      18.49280718       9.96348705      -0.50482737      -0.58816622       0.19621496      -0.03016068      -0.14414553       0.30048636
H       10.52394853      16.61007951       8.68549767       0.04423451       0.48873720      -0.55256234       0.31155832      -0.08823580      -0.02606554
H       10.89536708      16.65719318      10.29026359      -0.02261960      -0.43886578      -0.29550879       0.10122034      -0.19549830      -0.03415350
Cs      16.01314287      22.06460050       3.02344168       0.00821406      -0.01690601       0.07976167       3.02093586       1.13169742       2.34971959
Pb       6.28113394      19.41067485       6.50985033      -0.12196875      -0.17595076       0.18216704      -0.14901279      -0.68936936      -0.26966509
Pb      12.49545211      19.35249881       6.43790121       0.40752789       0.12638699      -0.02482059      -0.49502413       0.12105493      -0.30612735
Pb       6.74846365      19.15330118       0.28079236      -0.22292890      -0.02026815      -0.32263202       0.69745686      -1.66929191       0.35036074
Pb      13.08054128      19.18917400       0.02013268       0.04696159       0.15940246      -0.09500536       0.68911391       3.59002410      -0.78173074
I        9.47728993      19.81646092       6.50073540      -0.17213892       0.19870309      -0.07418640       2.95898529       0.26501424      -1.26349181
I       15.70284254      18.81578918       6.20144491       0.34055333      -0.22143747      -0.07591790       1.96970759       0.28190693      -1.21532432
I       12.05687925      16.29635179       6.03273905       0.01151459      -0.19510473      -0.08848780      -0.42223983       1.13591239      -0.34072188
I       13.81484819      22.46944791       6.57662496      -0.16899916       0.23548603       0.03330908      -1.38338106      -3.31458681       1.21237002
I       16.14659232      18.56726707       0.07841563      -0.13467744      -0.01240122       0.12947660      -1.58348181       2.00915907       0.60232115
I        9.38998626      20.20659443      13.55117167      -0.09315426      -0.16106372      -0.03808738       1.46760117      -0.00758169      -0.72028674
I       13.00224337      22.77431564      13.15603372       0.00391421      -0.02334810       0.10777781      -3.30747063      -2.77859736       1.02306351
I       12.56881183      16.19862116       0.36238837      -0.05239101      -0.33670235       0.05342536      -2.31265480      -2.50243684       0.39597300
I       19.06257018      18.54044123       9.66813512       0.08226844       0.09339266       0.04985924       2.72702369       0.48775396      -0.50938305
I        6.27539312      18.99942911       3.43189151       0.10441392      -0.06093669      -0.29217956      -1.22837389       4.18731826      -0.03035582
I       12.64228127      19.39535329       3.13077318       0.08751935       0.15558901       0.08480152      -0.61217237       1.69941381       1.33845397
I       12.76594556      19.25133019       9.60923150      -0.11733252      -0.04281813       0.18951469       2.64525917       1.21479931      -3.33828523
N       14.91478035      16.10344818      15.28470266       1.38811566      -1.01324164       1.63106364       0.14361503       0.36814596       0.06507413
C       16.39123236      16.53649488      15.40845532      -1.20974538      -1.10136107      -2.62836242       1.15103662      -0.08672996       0.59607189
H       17.01824665      15.60699222      15.40814950      -0.37664322       0.81613380       0.59664337       0.26640386      -0.26658662       0.00969437
H       16.33808782      17.18012241      16.23907613       0.79371677       0.61730679       1.43324942      -0.00181827       0.04927910       0.11912773
H       16.60618022      17.11916205      14.46652317      -0.02847978      -0.38292191       0.78728321      -0.19484771      -0.14477467       0.08910210
C       14.40086149      15.38395756      16.49995771       1.90035629       0.99251873       1.98155295      -0.04141864      -0.31162506      -0.08095727
H       15.01830936      14.48016611      16.80405964      -0.33971397       0.77310775      -0.84585830       0.12076618       0.17986643       0.13041928
H       13.37025102      15.10815630      16.40241207      -0.81371064      -0.08616026      -0.29180592      -0.42297778       0.24199394       0.08398358
H       14.54811760      16.12491075      17.38049445      -0.44068298      -0.98291505      -1.19642788       0.00477964      -0.05628465       0.07233296
H       14.74424889      15.55996795      14.47082926       0.14873842      -1.36323576      -1.47951502      -0.16674024       0.30443068      -0.10856748
H       14.32655484      16.87544848      15.07250034      -0.86451013       1.73094220       0.09471823      -0.08400551       0.16140524      -0.14416369
N        9.16704303      21.94038610      22.02503763      -0.08133161      -0.94956802      -0.09490762       0.19798724       0.06728047       0.93729135
C       10.26316334      21.73516492      23.04530714      -0.08741492       0.04520827       0.29122757      -0.76121663       0.14976909      -0.54891190
H       11.22507007      22.00171695      22.52108425      -0.69160593       0.03966795       0.71119273       0.33206871      -0.10569078       0.00161471
H       10.33266877      20.66953715      23.38916045      -0.24843199       0.72125721      -0.29085270       0.11299573      -0.06166366      -0.09441495
H        9.98015533      22.41968135      23.92409448       0.74547583      -0.85199681      -1.06804966      -0.23602744       0.29894843      -0.29478587
C        9.01962053      23.40479143      21.81659129       1.35301593       0.14346289      -0.05441630       0.52811119       0.29919267       0.00419115
H        8.36780789      23.74305615      22.64291650       0.26810439       0.47642493      -0.40806661      -0.11942718       0.15218551       0.18411485
H        8.68943232      23.64696552      20.80091174      -0.58776547      -0.14006939       0.11134545       0.07565050      -0.08855743      -0.02110089
H       10.08168174      23.84233482      21.85369055      -1.34789480      -0.35864615       0.32806860      -0.23547968       0.23610543       0.11629442
H        8.27470065      21.48969088      22.37673423       0.74097225       0.34539635      -0.26123394      -0.24478180      -0.12727013       0.28066803
H        9.37991789      21.39686883      21.09210341      -0.00881547       0.54899484       0.83594918      -0.09610249      -0.00882524      -0.22137716
Cs       9.85430698      16.00022638      22.30529598      -0.10214565      -0.04205582       0.08743951      -0.65146255      -1.84390429      -0.89344027
N       16.80017962      21.22411433      16.82725171      -1.42126462      -1.22955664      -0.55797010      -0.46730297      -0.51626640       0.01921962
C       17.14739533      22.61818491      16.56869818       0.49891978       0.99949332       0.26829619       0.38297476      -0.16490024      -1.23497438
H       16.75892147      22.95864427      15.59704995      -0.29239305      -0.19104799       0.31570453      -0.26960787       0.12758205      -0.12712231
H       18.21458159      22.57100890      16.45821897       1.00841504       0.60932842      -0.15436785      -0.03847011      -0.15802878      -0.24543743
H       16.87906955      23.32518846      17.38162937      -0.03062372      -0.49207790      -0.28753899      -0.00275521      -0.01365747      -0.11411087
C       16.56933515      20.57164524      15.45886166       0.70221162      -0.29366117      -0.45858734       0.48456941       0.40931342       0.50755840
H       17.39244186      20.89979500      14.70000355      -1.17896786      -0.31183474       1.36505627      -0.28802787      -0.08244674      -0.19859612
H       15.57013047      20.78662405      15.04181249       0.19802937       0.53927244       0.29057400       0.05198678      -0.04203995       0.47292918
H       16.57862250      19.47545253      15.53654849       0.26397589       0.11479837       0.25867139       0.15443372      -0.09490040      -0.04608968
H       15.95215141      21.19718825      17.44396830       0.19603050      -0.19121025      -0.57254716      -0.12516496      -0.12768007      -0.01532248
H       17.51348872      20.66674550      17.36811916      -0.08972937       0.58060661      -0.30352207       0.08017184       0.10405924      -0.02617584
Pb       6.08732155      19.55559973      19.61003248       0.45401403      -0.05490009      -0.15891863      -1.45707232       1.40298855       0.47577528
Pb      12.56349729      18.75148418      19.50546839       0.06086466       0.32289946      -0.14821995       1.45175361      -2.35701937       1.19363374
Pb       5.57490246      19.56359610      12.89815884       0.09101733      -0.05266974       0.11926033       0.28780154      -2.60235494       1.72303203
Pb      12.49976968      19.75213656      12.85363303      -0.00683524      -0.11844725       0.15991263       2.47655803       2.23282856       0.40636403
I        9.45378300      19.80640753      19.40202162       0.09105015      -0.14385516      -0.15752092      -0.73935694       1.47533615      -0.99842547
I       16.05720789      18.51647013      19.80287968      -0.09775848       0.03248728      -0.25358346       2.26685973      -0.71690858      -0.86262672
I       11.47554661      15.95852241      18.96624482       0.01735103      -0.17401518      -0.08308252      -1.90236475       2.09046805       1.04723578
I       13.03998531      22.10632495      19.48812249       0.05122087       0.32406955       0.12552549      -4.27369396      -0.41524965      -0.14954062
I       15.63275472      18.77033493      12.54670131      -0.00515906      -0.07372297      -0.13339893       2.77888167      -0.09083393      -2.65096048
I        9.82638491      19.66817521      26.27782920      -0.13012200       0.09879845       0.00047634      -1.50361321       3.62038311       1.48762044
I       14.13716197      22.62527094      25.60054384      -0.10638481      -0.22077224      -0.06031388       3.91486299       0.36346172       1.76556246
I       12.41250681      15.81759796      12.77695196      -0.17437400       0.27175995       0.08664224      -1.44046152      -0.95782818      -1.93862134
I       18.73148944      18.84899959      22.81529962       0.11314155       0.01421471      -0.37955223       0.50572546      -1.84165558       1.87487244
I        6.07454175      19.06062410      16.49921508       0.06262692      -0.10791428      -0.08831322      -0.87840524      -1.39142115       1.21317630
I       12.59378681      19.70659379      16.33142661      -0.04619902      -0.17038096      -0.17901004       0.23316090      -1.08664645      -3.55409380
I       12.93881361      18.38137394      22.69626794      -0.07979837       0.05624632      -0.03862753      -2.57003874       0.27160132      -0.72477327
Cs       9.39393826      22.59278632       2.91303172      -0.05386020      -0.08415762       0.24513140       1.09184751      -0.19576683      -0.95926142
Cs       2.33858093       3.36728409       9.68762413       0.29867797      -0.36559097       0.00190559      -1.38250448      -1.80598656       1.20646553
Cs       2.54555324      22.89852701       9.88449804       0.06039635       0.09455460       0.08874120       1.61856484       2.12826377      -0.93673055
N       10.37824630       3.03559808       3.02423093      -2.08804693       1.58301641       2.25604038      -0.42198943      -0.43357381      -0.12347808
C       10.15014391       4.39571010       2.43895316       1.54360337       0.67058319      -0.95208878      -0.01550852       0.20455172       0.46551025
H        9.58353844       4.27003193       1.50761948      -0.13543062      -0.02823822       0.08565505      -0.01693171      -0.08480239      -0.02411786
H       11.14431947       4.92821921       2.15627666      -1.27844329      -0.99607585       0.53390252      -0.05936476       0.27208335       0.20813185
H        9.60357499       5.04728489       3.12255385      -0.16592463      -0.20885196       0.32699715      -0.24958722      -0.34665994      -0.22098218
C        9.11736764       2.39331569       3.61530841       0.43002102      -1.53457476      -0.57896133       0.90327734       0.89611526      -0.50905486
H        8.26618365       2.37146493       2.89498381       0.72596169       0.17403017       0.02638794       0.27119981      -0.02161200      -0.03890781
H        8.76754826       2.90803254       4.53511997       0.57110613      -0.06080253      -0.34242541      -0.11181484      -0.02057106      -0.15302870
H        9.46528608       1.31689342       3.81454157      -0.75665956       1.30877619       0.08482666       0.17696563       0.27893788       0.25123288
H       10.97373911       3.10594806       3.87067205       0.52185432       0.33852492      -0.01276830      -0.25350311       0.02672920      -0.15252457
H       10.86802015       2.44220435       2.39731009       0.69178906      -1.04687439      -1.40188744       0.06501648      -0.32424263      -0.21854446
Pb      -0.27249733      -0.05452394       6.20271444       0.20009905       0.04245378       0.10706971       0.86855424       2.25564021       0.18034322
Pb       6.55273067       0.19369360       6.61600135      -0.14307544      -0.13643330       0.09683274      -0.57145150       1.91116589      -2.52229278
Pb       0.33442371       0.01047952       0.34967157      -0.41157618      -0.01876441      -0.39957665       1.55443751      -2.21534615       0.68792557
Pb       6.27811081       0.12534504       0.19610662       0.12451293      -0.00140969      -0.14793738       2.50022367      -6.97503127       0.71978368
I        3.30505843       0.74790965       6.97288836      -0.03594821      -0.04012787      -0.08322899      -1.34672353       2.23031204      -1.25631915
I        9.74717489      25.31289670       6.65172373       0.11702408       0.03413431       0.02368231       2.18133889       0.66312379      -0.39590120
I        6.11531927      22.30763317       5.68080146      -0.10108553       0.33914034       0.04629488       0.55385627      -0.68719525      -0.50638932
I        6.77617121       3.27915101       6.92197024       0.01695352      -0.02296171       0.03795097      -0.83589956       0.80623397      -0.47030041
I        9.42666545      25.08432402       0.32143659       0.05867550       0.15716438      -0.17723030      -0.99683709       1.28273118       0.12114830
I        3.09076187       0.65843240      12.60407920      -0.21148835       0.12556937      -0.12442828       0.13116980       3.50680037       0.06350081
I        7.21919011       3.14585571      12.16561521      -0.08737434       0.16423702       0.04346082       0.50861877       1.67854610      -0.11931517
I        6.02638379      22.34899170       0.39737151       0.02811485      -0.00071941       0.14380274      -1.73230661      -0.35108737       1.20547875
I       12.97042417       1.18724737       9.91843957      -0.13176104      -0.17873781      -0.25147989      -0.67109927      -3.01103754       2.59006738
I        0.93188616      25.46509559       3.25852224       0.17510038      -0.16837018       0.28822200      -1.68400029      -0.76862241      -0.89220835
I        6.46612238      -0.09732121       3.36903465      -0.26487475       0.03463850      -0.12952333       1.10255128      -2.08814307      -1.79001835
I        6.06923504      25.18072771       9.75983515       0.01361661       0.07740653       0.08245504      -0.02566516       0.47172726       0.56779261
Cs       9.46796425      22.93584640      16.25829185       0.06599453      -0.24734962      -0.03113291      -0.61374859       0.34371091       0.03752241
Cs       3.25871289       2.99599417      22.10452241       0.21605359      -0.00097749       0.04902753       3.05782117      -0.42796523       1.11518522
N        4.24693339      22.89385138      23.28997519      -1.67749810       0.94875043      -1.22318959       0.37357431       1.03857811       0.72994026
C        2.68557323      22.86079437      23.23796467       1.98777259      -0.30373918      -0.05065846      -0.56633533      -0.09975472      -0.76113796
H        2.32098012      23.27888747      22.27104752       0.30259948       0.05510029       0.79175982       0.19028042       0.03964228      -0.06892940
H        2.40165235      23.30014451      24.17714547      -0.69083116       0.74648517       0.17534364       0.24226265       0.12463227      -0.11712600
H        2.47479283      21.80809301      23.31237656      -0.40974867      -0.66292156      -0.19958846       0.01266852       0.09171353      -0.17042336
C        4.81676935      22.10598485      22.21444455      -0.40296819      -2.57465664       0.57205082       0.26627512       0.15964461       0.36157385
H        4.56156213      22.51075609      21.27148484      -0.40047007       0.68200369      -1.22571467      -0.08750219      -0.47238028       0.12269622
H        4.41208527      21.01033848      22.27389084       0.69154573       1.61308745       0.03792451       0.18282084      -0.43205910       0.04708856
H        5.88212029      22.12960666      22.35589809       0.74460676      -0.19231044      -0.10496882      -0.01824991       0.21938203       0.06001551
H        4.65451389      22.55652419      24.16949406      -0.14562406      -0.15782653       0.89217544      -0.01443056       0.09631050       0.14451078
H        4.57304806      23.87815666      23.16605626      -0.03730224       0.04153901       0.19337025      -0.00036500       0.52940012      -0.01583973
Cs       8.95883260       2.80070502      15.92531169       0.09767646       0.17081980      -0.13464479      -2.96830181       2.14136609      -1.95025213
Pb      -0.02158491      -0.04372407      19.18789911      -0.07668611      -0.08931779       0.25161772      -0.20865613       2.19630859       1.47417925
Pb       6.42129478       0.18407748      19.27051138      -0.08395635       0.03241781       0.00504702       0.97163691      -3.87029591      -1.72760587
Pb      -0.55395298       0.21924465      13.13178063       0.61391907       0.04930473       0.08000668      -3.47166391       1.39482857      -1.36228892
Pb       6.03354419       0.16156551      12.87654482       0.20502555       0.11885410      -0.11410425      -1.82873226      -0.66442076      -2.94245060
I        3.13666405       0.08151863      19.77467413       0.02841752      -0.04110226      -0.04751864      -2.53290811       1.63857637      -0.16066941
I        9.49535536      25.84950768      18.56888545       0.07406706      -0.17262670       0.09139342       1.41846914      -1.06750739       1.75939650
I        6.00685619      22.86146882      18.25349135       0.33194553      -0.11409541       0.24975480      -0.57577408       0.50347986       1.50983785
I        7.71544729       3.34032677      19.66454847      -0.09534643      -0.18516269       0.14085036       0.33593869      -2.37691534       0.91943604
I        9.62759042      25.54725741      13.49657036      -0.00885370       0.00218912       0.04316752      -0.65289315      -1.32463351       2.56026828
I        2.99624372       0.99369714      25.28580144       0.45634410      -0.05620972       0.19007578       0.23007808       0.63213535      -3.02217795
I        7.05951366       3.33005182      25.60253636      -0.11877266      -0.25894260       0.09348584      -1.90465955      -2.72321247       0.99003036
I        5.28117720      22.75319955      12.89372866       0.17591349      -0.28801208      -0.09140377      -1.12148481      -2.26822497      -2.41184045
I       12.74785911       0.31348101      22.82756919       0.03131980      -0.05285847      -0.07452878       0.63252389       2.72192752       1.24743364
I       -1.07785275      26.38512306      16.35164145      -0.05075351      -0.11109506      -0.34726533       1.55838475       0.44754297       2.89118225
I        5.50536366       1.12067118      16.38277210       0.36208718       0.03800332      -0.13149631      -2.20839146      -0.88734205      -2.82326606