400
Lattice="25.627553544727103 0.045120588097688416 0.1831897223410866 0.006241414471186461 25.373036416823993 0.08564988376006986 0.31197760214463666 0.05488856743398495 25.58511081514308" Properties=species:S:1:pos:R:3:forces:R:3:momenta:R:3 energy=-1323.921142578125 stress="0.00114067189861089 -5.999610584694892e-05 0.0005721012130379677 -5.999610584694892e-05 0.00016804978076834232 0.0002678493910934776 0.0005721012130379677 0.0002678493910934776 -0.0001592190674273297" pbc="T T T"
Cs       9.22817075       9.03269303       2.82946960       0.05954735       0.22361807       0.09408266       0.41136283      -1.78126884       1.62519017
N        3.30392127      15.92150147       9.57451059       0.39678574      -0.00276929      -0.30514494       0.24371242      -0.04914905       0.13985458
C        4.56426217      15.94028476      10.46187615      -0.72182720       0.98586990      -0.02737647       0.74852828       0.31688419       0.01046619
H        5.37699367      15.34728125       9.98908613      -0.36418804       0.57265678       0.07185617       0.17830124      -0.00939006      -0.16320155
H        4.26697650      15.48780613      11.39716838      -0.10760165      -0.44074448       0.42047074       0.05607357       0.15287200      -0.14231136
H        4.80295609      17.02969499      10.70308323       0.03455412      -1.21487551      -0.59788426      -0.31511302      -0.07963021       0.29214828
C        1.94589372      15.90637445      10.18422126      -1.92776882      -1.04131401       0.37513086       0.50329100       0.17544984      -0.00866436
H        1.11264539      15.69834696       9.42785969       1.27535023       0.50696314       0.31895934      -0.06854016       0.05659815      -0.00455775
H        1.68841497      16.87694237      10.66225913       0.45216603      -0.41972930      -0.08314176      -0.11301563       0.00178335       0.03323631
H        1.75906254      15.03755353      10.89311112       0.91699441       0.87472652      -0.37400414      -0.07087112      -0.05869054       0.05349142
H        3.35856752      15.13072930       8.90466062       0.07325709       0.17980393       0.11534643      -0.03852113      -0.09684005      -0.04742304
H        3.33683955      16.78300086       8.98186055       0.05982111      -0.13421672      -0.23686456      -0.12056649      -0.17394154      -0.14796566
N        3.64677172       9.87933478       8.50748140       0.23933339       1.51090218      -0.96733818      -0.94624616       0.29303519       0.71252160
C        2.87702748      10.70660316       9.43339767      -0.61030185       0.69917450       0.72039724       0.11950758       0.93725014       0.24772319
H        2.60612937      10.14772177      10.30353441      -0.14115353      -0.93103046       0.61239696      -0.32856167      -0.08862950      -0.09587385
H        1.94384909      11.05104304       8.97541711       0.13978979       0.14934429      -0.19038223       0.18937716       0.24388020      -0.04966018
H        3.51527434      11.50917334       9.83454251      -0.20054230       0.17271792      -0.47849964      -0.09265638      -0.08127442       0.16604388
C        3.37204382       8.49264251       8.33517324      -1.09130463      -1.89892168      -0.18117477      -0.86504983      -0.56466741      -0.26838749
H        4.03822626       8.06990664       7.52448503      -0.85047677       0.39407312       0.55900151       0.04520140      -0.15924377       0.03480000
H        2.26716540       8.49177675       8.10348880       0.92841841      -0.62615696      -0.01514068      -0.25284482      -0.08793937      -0.17474051
H        3.59694195       7.94189867       9.26913402      -0.18217168       0.21867720      -0.15863347      -0.26705217       0.21738334       0.04426172
H        4.61054994      10.00441585       8.72669203       1.91161899       0.05301308       0.78624044      -0.13322024       0.35833710       0.01652095
H        3.60885778      10.31785823       7.58252347      -0.22499590       0.22116193      -0.45733878      -0.46791896       0.16803064       0.12246711
Cs       9.93527794      15.45745527       3.56557632      -0.21367638      -0.06744240      -0.08902016      -0.83689009       0.05381121       1.18983199
Pb      -0.09870070      12.81313593       6.07342867      -0.13351376       0.06240986       0.13139410      -2.32491966      -1.24791563      -3.55555745
Pb       6.32807879      12.31753386       6.53816591       0.13752154       0.21111368      -0.28354138       2.66077147      -2.50053113       1.54206618
Pb      -0.35184084      12.24695536       0.03941790       0.19508839       0.21436248      -0.16602131       0.72422079       1.69564725       0.82199058
Pb       5.87857978      12.61700256       0.05271604       0.02643477       0.38136477       0.04143477      -2.77535142      -1.48819477       0.70537346
I        2.92722369      13.49798149       6.05382693       0.08356576      -0.06976880       0.32247317       2.53271782       0.46517221       0.70807020
I        9.51708278      11.89087926       5.99891923      -0.10601129       0.03622349      -0.02023575      -1.08520033      -2.87663243      -2.00863674
I        5.65411164       9.41971880       5.47729031       0.22271914       0.00869987       0.08497829      -0.06113568       1.69553527       0.77189456
I        6.40560864      15.81540921       6.42032646       0.24484037      -0.06272707       0.06738327      -2.21322264      -4.37100206       1.50763225
I        9.40668793      12.77304427       0.68046266      -0.16398452      -0.14611429       0.01051589      -1.14095176       1.96238774      -2.11665622
I        3.30757461      12.98628445      12.96916149      -0.33065984       0.00026022       0.16952452      -2.29775368      -0.22045654       0.75713632
I        6.82584705      16.12145801      13.59236186       0.04940154      -0.52530631      -0.03016825       0.52395034      -0.17656560       2.88924098
I        5.86728244       9.53408167       0.04458371      -0.09240043       0.01333727       0.30395234       2.06147368      -1.33033487       0.12629754
I       12.37333669      12.70944644      10.14839264       0.02025761       0.01655839      -0.18297767      -1.23455879      -2.21849480      -0.64022283
I        0.38589532      13.21081295       3.01714896      -0.21779597       0.01172356      -0.08131121       0.36611796      -0.87551357       0.10449075
I        5.96355464      13.28352694       3.18285487       0.03264369      -0.02445573      -0.15591153      -0.38746565       2.92695156       3.53342075
I        6.42822421      11.74218843       9.54584785       0.24706812       0.12151995       0.11141640      -0.59709323      -0.41578093       1.69246484
Cs       9.48023084       9.26192513      16.57036555       0.02772025      -0.02674587      -0.01431036      -1.65662068      -0.34746420      -0.52968950
Cs       3.40286735      16.60645701      21.67990236       0.05858305      -0.18112455       0.22791191      -1.06274305       4.24145836      -1.68905983
Cs       3.21594977       9.86372728      22.18336684       0.13900576       0.03086786       0.03182736       1.26949387       0.19245090       3.25871815
Cs       9.62853739      16.37252695      16.15969374      -0.16311284      -0.21188680       0.23306090       1.42991978       0.75921239       0.60218587
Pb       0.08288447      12.63391738      19.26055194      -0.11198358       0.13604177      -0.02477084      -2.00693982       0.93590180       1.74154153
Pb       6.66106933      12.80987437      19.68574250       0.14734798       0.25731906      -0.45178449      -1.51507457       4.91137186      -2.18108790
Pb      -0.24358050      12.35804050      12.42069018      -0.00837573       0.31149426       0.04600192      -2.57322550       0.25955781      -2.56574397
Pb       6.22652898      12.67540853      13.14033291       0.41269882      -0.23023529       0.14904676       1.10452813       0.21451505       0.66755815
I        3.53801798      13.51062731      19.20202732      -0.29752967      -0.05359221       0.08170127       0.79574872       0.83080228       0.55258987
I        9.90779432      12.29207598      18.89821613      -0.07364151       0.10676135       0.16413849       0.12990854      -2.78445617       1.32808870
I        6.08244291       9.85246293      18.36027984      -0.08494412      -0.25355130       0.09137055       0.22437907      -3.18579947       1.79235045
I        7.31328242      16.03842554      20.10545267      -0.06575447      -0.12564839      -0.16393500      -0.26684782      -1.62411353      -0.59750978
I        9.78921701      11.45471121      13.72254279       0.04151083       0.24368923      -0.22302631       2.13622742       2.03109308       0.21682028
I        3.07617979      13.40145236      24.99132999       0.24159969      -0.22452566       0.02381919      -3.25279374      -0.73059050       2.14622271
I        6.80456654      15.77178846      24.35882047       0.11732381      -0.01416988       0.11559237       0.97868662       1.07629708       0.77844957
I        6.06196917       9.31796420      13.05875786       0.02915721       0.11121654       0.13393433      -0.01517369      -0.25840139      -0.05515506
I       12.85259242      12.93064711      22.68188285      -0.12598383      -0.07641521      -0.09807632       0.53979960       0.64955334       0.27772830
I       -0.19989540      12.72636816      15.89615189       0.16589772      -0.08224312       0.08100385      -0.70832241       0.97175337       1.58901387
I        6.40219590      13.11368704      16.29893655      -0.03069843       0.07057362      -0.31347423      -2.46517397      -1.26071304      -2.65638201
I        6.95295052      11.84512910      22.48376222       0.01778268      -0.07392537       0.22954655       2.11294545       0.36750471      -4.21053101
Cs      16.02516702      15.67531509       3.79749481      -0.06239641      -0.04912895      -0.22870071      -0.31877725       2.19860004      -3.22653942
Cs       9.87669907      22.44258375       9.46918468       0.01907174      -0.09454383      -0.00591284      -0.98072464      -0.12346399       2.38902881
N        9.77343897      15.80718309       9.24332329       0.20576529      -0.41764443      -1.36442000      -0.25437664      -0.28191904      -0.16231333
C        9.23001982      15.02878961      10.37491891      -0.79318524       0.68435401       1.06417982      -0.15007605       0.92847393       0.22154241
H        9.90472376      15.22092190      11.29137358      -0.95325090      -0.66841662      -1.19421505      -0.03151553       0.21166043      -0.07718140
H        9.08706671      13.97181434      10.02699894       0.27319252       0.64552720       0.65250375       0.04834624       0.09274515       0.28371742
H        8.23651700      15.52797967      10.53043538       0.51616904      -0.73537232       0.43123481      -0.14723059      -0.20640338       0.01919078
C        9.86528550      17.27958072       9.49220375      -0.91708732       0.20844412      -1.43421671      -0.07562179      -0.15137098       0.50905035
H        8.85914165      17.67922765       9.75930916       0.60591273      -0.38946222       0.34617376       0.26384997       0.16684633      -0.03702599
H       10.13416348      17.85740342       8.55391270       0.12641746      -0.81230486       0.79680796       0.04405432       0.05485982      -0.07820596
H       10.61855123      17.32121118      10.23752806       0.64774103       0.87306453       1.06105372      -0.00670651      -0.00962831      -0.12334947
H        9.12177291      15.65230979       8.41624163       1.08599319      -0.00590047       0.55790511       0.19130165      -0.28797229       0.10775107
H       10.74322588      15.40239079       9.09189535      -0.88759231       0.45031827      -0.73250703      -0.16581512       0.11912876      -0.01327144
Cs      15.78371384      21.61546715       3.20681970       0.03322655       0.09187485      -0.08039289      -2.39528290       0.49936043      -1.83352634
Pb       6.23938406      19.12625521       6.48648605      -0.01343407      -0.19555403      -0.12155598       5.06777861      -2.79890564       3.16937296
Pb      12.67682973      18.95694357       6.47607917      -0.04748842       0.08380364      -0.18677484      -5.81680593       1.58397259       2.74391616
Pb       6.34632967      18.57731351      -0.03405881      -0.17737409      -0.05014113      -0.15306345      -0.86146492       0.63456066       1.26207150
Pb      12.49868657      19.36775003       0.23872697       0.22549209      -0.18556676      -0.17197227       2.18069825       2.08050765       0.83239154
I        9.40908924      19.74013301       6.62886801       0.16547540       0.03294473      -0.13178592      -1.26392743      -0.19790602      -4.80595882
I       15.81810655      18.75600035       5.77343280       0.05647632      -0.05229290      -0.09846452      -0.60080356      -0.77211775      -1.74545766
I       12.07011270      15.60389407       6.52097793       0.18579814       0.13573471      -0.01660616      -1.72308982       2.21825260      -0.10697125
I       13.54309028      22.16796676       6.27727157      -0.16274351       0.01356086      -0.11640933      -0.45150554      -1.37548571       1.90815697
I       15.89043951      18.93202723       0.40778469       0.05065090      -0.00425226       0.10887248      -3.16196754      -0.17039762      -3.13977379
I        9.82096289      20.12685701      12.87401153      -0.13103224      -0.18096290      -0.02808631       1.50356426       3.73165877       3.10444135
I       13.55482359      21.79991720      12.51779723       0.01960659       0.08733481       0.16232930      -3.58600997       2.16991081       0.63299535
I       12.38115332      15.88344581       0.39293750      -0.08245932       0.21664928      -0.00035581      -3.80206625       0.18682412       1.79485507
I       18.75178418      19.59123633       9.80641860      -0.09091781      -0.06660576      -0.01139389       0.24542677      -0.39032962      -0.94753347
I        6.33326055      18.68722615       3.07636339       0.07931798      -0.11270410       0.10234068      -2.29016407       0.81952841      -0.38672682
I       11.85634899      18.87153141       3.21911228       0.04336468       0.07948703       0.07842418       2.94605972       3.25775913       2.05395089
I       13.85701034      18.86164714       9.23581056      -0.11797723      -0.14262715       0.43411135       0.94166772       1.43460734       3.66354815
Cs      16.19168918      16.17951333      16.58616021      -0.00954842      -0.13797291      -0.11906877       1.00955964       1.64290451      -1.46837135
Cs      10.10224654      22.33950024      22.81248089       0.00217393       0.12365004      -0.01604783       1.74790543       0.66765268      -0.54246445
Cs      10.37855416      15.86850418      22.43063266      -0.13784801       0.01224796       0.13118197      -0.98350446      -3.89919479       0.07932574
Cs      15.24799525      22.12287693      16.44649876       0.11718820      -0.10636256       0.03239973       0.65234295      -0.70218657      -2.57563591
Pb       6.72427730      19.32696341      19.26502865      -0.32258432      -0.16162810       0.19716904      -3.30124819      -1.23052512       1.57862013
Pb      12.85704993      19.13997914      19.74629703       0.11483063       0.23784486      -0.28863853       2.23767665       5.28164024      -1.18638810
Pb       6.86405713      19.01374285      12.93298249       0.06126230       0.43733740      -0.12245469       1.36910158       0.90691911      -0.50444501
Pb      13.04250131      18.57998959      13.51337561      -0.22031829       0.31471856      -0.21349042       2.27686309      -3.70961661       0.47195757
I        9.73181424      19.41064746      20.03581096       0.03129704       0.11218740       0.08207753      -0.06122840       3.99169092      -0.24716402
I       16.13908702      18.69483808      19.25840157      -0.01129881      -0.04854117      -0.05456388       1.25900501      -0.60338300       2.14553931
I       12.73281903      16.03942508      19.41822918      -0.13238602      -0.04513489      -0.17104692       0.97037511       0.07531419      -2.54143516
I       13.07323691      22.46508177      20.09624326       0.09948248      -0.07008442      -0.14094593      -0.25426296      -0.18967373       2.83506842
I       16.06194072      18.36917628      13.39048977       0.04427548      -0.05889710       0.05145991      -3.42291348      -0.81154307      -1.46699483
I        9.69483627      19.41507119      25.22338510       0.12579157       0.02473945      -0.04021135       1.73376051      -0.43134476      -1.63554836
I       13.63052348      22.36195709      24.81588476      -0.10655765      -0.01048663       0.18820512       3.85557015       1.07830291       2.27511907
I       12.32750126      15.57814305      13.88191884      -0.01772809      -0.04267083      -0.05162376       0.30008683       0.22963385      -1.79213175
I       19.65092540      18.91279582      22.66418522      -0.23834330       0.18634974      -0.02204649      -1.32016717      -0.46910663       0.08674616
I        6.88109732      18.99940667      16.20823850       0.04159433       0.06859898      -0.21750989      -0.34065063      -2.36657230       2.58179720
I       12.08661325      19.22349551      16.40491182       0.24833985       0.09591438      -0.07198764       0.37110137      -0.98559570       0.55452035
I       13.78547039      18.79221547      22.57088898      -0.16439585      -0.01439931       0.37728122      -2.26779519       0.03001064      -0.35617147
Cs       9.07759176      21.69049173       3.24624273       0.02625054       0.04598738      -0.09088786      -1.40863050       2.66688411      -0.88417175
Cs       3.42952838       2.92895920       9.74291297      -0.07573922      -0.27263299      -0.10787814      -0.43760294      -0.59903761       0.99508858
N        3.36235305      22.18464875      10.17662038      -2.31003178       0.62630844       1.78032462       0.01218340      -1.47933921      -0.32733545
C        3.47264463      20.75567088       9.71605021       0.98211078       2.13368066      -1.20160140       0.39386417       0.04479562       1.08369873
H        3.66943564      20.13169402      10.55751676      -0.67667400      -0.78076689       0.74364066      -0.06109246       0.11138218       0.27716223
H        4.47963181      20.84510469       9.24959258      -0.59357474      -0.66404833      -0.53743981      -0.10622256       0.12219666       0.05159432
H        2.64279469      20.56311345       8.99032142       0.61402198      -0.28652548       0.75440133       0.10744460       0.04369879       0.04525581
C        3.60172560      23.20490878       9.14224953       0.84142115      -0.96094987      -0.32936995      -1.26293122      -0.03256935       0.32710847
H        4.54139367      22.87137177       8.70387643       0.35890967       0.55645905      -0.34354689       0.12663280      -0.10427251      -0.07437178
H        3.65735149      24.20348299       9.56943659      -0.10130502       0.17128002       0.06075968      -0.05515050       0.08653882       0.13688841
H        2.84365309      23.07279831       8.39163008      -0.59813349       0.25750279      -0.47279492       0.18962986       0.03668633      -0.53895661
H        3.99509648      22.39983799      11.01802208      -0.48518995      -0.52497007      -0.58269779      -0.05182084      -0.16528196      -0.10770053
H        2.35067708      22.36263005      10.50437268       1.32870526      -0.41238696       0.22379102      -0.05079670      -0.14405465      -0.12489364
Cs       9.49169915       2.54790529       3.50439076       0.02024967      -0.00127422       0.10695897       2.62315010      -1.61622589       0.17399075
Pb      -0.03470613      -0.12572791       6.48351842      -0.04225281       0.17738643       0.31856166      -0.11756366      -1.71785649       2.18640786
Pb       6.52037239       0.03440592       6.19675056      -0.01639717       0.03438104       0.02324916      -1.82481398       0.35294729      -1.22123618
Pb       0.09850299      -0.09496042       0.08234162      -0.31780547      -0.14795144      -0.21225369       3.33067538       0.89476263       2.07439528
Pb       6.45019006       0.22178013      -0.34751712       0.03288697      -0.01026472       0.24681011      -1.34559633       1.01538813       1.41951685
I        3.31315761       0.47900298       6.28205779      -0.15691804       0.11608696       0.16749942       1.37009335      -0.09302141      -0.63563431
I        9.66348458      24.57477161       5.85542043       0.13188334       0.13345301      -0.01695047      -0.56939964      -0.59160896       1.64381856
I        6.27311840      22.28720066       5.75269685      -0.12272640      -0.01815269      -0.00399827      -1.59945478      -0.05447891       3.07704896
I        7.41193279       3.12867169       6.85925169      -0.11065855       0.04951283       0.01354989      -0.26143805       1.55791543       1.42077543
I        9.86160335      24.95185291       0.69980391      -0.36577933      -0.20223480       0.09069500      -2.36513502      -0.40637727       0.46678398
I        3.22452779      -0.01488662      12.38259609      -0.16678092       0.22726958       0.00383804       1.03617779       2.39794157       2.72409454
I        6.30065469       3.05861372      12.10252076       0.31612477      -0.24297894      -0.08237737       2.36315905      -1.46963099      -2.08631763
I        6.16384693      22.69048788       0.86632998       0.01382743      -0.06072236      -0.26917431       1.68781806       2.91087060       0.16102293
I       12.86148512      -0.45642795       9.25773296      -0.03724020       0.00533826       0.18821416       1.50656725      -3.19500084       0.41928295
I       -0.67806170      25.30906159       3.59454144      -0.07854510      -0.04617930      -0.45976889       1.58053416       1.84332758       0.32307573
I        6.01212158       1.25888324       3.25363672       0.01052706      -0.09469604      -0.14132816      -1.51297429       1.93220883       1.61981347
I        6.91297612      24.73455783       9.63813407       0.14138874       0.17341943      -0.08448638      -0.49590420       0.06728100       0.44662431
Cs       9.44858149      21.92994317      16.35464529      -0.01325753       0.22090471       0.02237941       0.25898379       0.78681998      -0.23348830
Cs       3.70918510       4.17899685      22.32411392       0.03596625      -0.13101124      -0.04412554       0.01257781      -1.18910749      -1.82136646
Cs       4.30381027      22.56731065      22.77510911      -0.19788924       0.24846374      -0.01806359       3.05910058      -1.21295535       0.16292305
Cs      10.43829647       2.68444871      15.39110891      -0.21570605       0.04059555       0.20291461      -0.72890440      -0.91810937       3.11056383
Pb       0.15682640      -0.07102601      19.30186079       0.04685921       0.07772480       0.07548901      -1.79388749       2.27516617      -2.87561369
Pb       6.55360518       0.24359441      18.93421726      -0.03674259       0.03138632       0.25152711      -1.65669729      -0.18246650       0.93590204
Pb       0.03441681      -0.24233905      12.89817719       0.02594165       0.05952881      -0.04432776       4.63943050       0.83409145      -1.53953774
Pb       6.52769006      -0.44700345      12.80993986      -0.01437784       0.20214628      -0.24603387      -3.45100535      -2.04075077       1.31030830
I        3.39421144       0.26814254      19.37667288       0.09750754       0.13266275       0.12772974      -0.59450026       3.67504144      -0.80259999
I        9.99605331      25.23121532      19.02776196      -0.74859551      -0.17988037      -0.25890218       1.65658817      -2.27237159      -0.11053669
I        6.11404778      22.38361709      18.85610709       0.04529103      -0.00338463       0.02575107       0.53147764       3.57243364       1.38713623
I        6.95339356       3.34371753      19.69367696      -0.09482850       0.15190727       0.01266479      -1.61448282      -0.13153893       3.27078644
I        9.57383530      24.69732605      13.58444314       0.28397529      -0.05747392      -0.11864929       0.53332000       0.21052240      -0.50621592
I        3.41467963       0.35087646      25.03293385       0.23500303       0.09921553      -0.11042515      -3.20779261      -2.02921914      -0.44590040
I        6.98921670       3.51187601      24.50671059       0.05339131      -0.16919624       0.02264951       1.66067536       1.40236762      -1.21105144
I        5.48755890      22.05862260      13.00932206       0.13179312      -0.20596591       0.18973478       0.33343088       0.95997255       2.43109760
I       12.17659353       0.48060369      22.60177713      -0.05442934       0.13972664      -0.18729269      -0.06700657      -0.68407934       0.30950707
I        0.16243067      25.00177413      16.33890756      -0.00265891      -0.06265572      -0.59843481       1.87181491      -0.92297372      -5.17047114
I        6.50424058       0.24862798      15.86802974      -0.02471629       0.09700225       0.08082502       2.36393731      -0.05806662      -2.02187826
I        7.40544590      25.16323775      22.35440630      -0.10876207      -0.14334818       0.12551439       0.30439884      -1.88390460       2.10460713
Cs      16.55220864       2.90256547       2.87621548      -0.14751714      -0.04957184       0.15790626      -3.72859977      -0.75739619       2.12266615
Cs       9.97658944       9.40868105       9.99019562      -0.03357584       0.04052989       0.02214948       2.36584968       1.68691860      -0.30264758
Cs       9.77196852       3.26307303       9.61295347      -0.19842470      -0.17183230      -0.02781271       1.32652699      -2.56501433       0.44491597
Cs      15.74565567       8.91320271       2.75031135       0.07249999       0.10763519       0.14264540      -0.22917616      -0.86669336      -4.76602641
Pb       6.68628280       6.14187346       6.28254066      -0.01948150       0.03900184      -0.04617751      -2.33283959       5.39419790      -2.53538193
Pb      12.86016993       6.28499618       5.94169063      -0.01757096      -0.02904487       0.14043453       1.72866394       2.46536266       2.48788911
Pb       6.51352475       6.43767781      -0.06610125      -0.03784776      -0.12829288       0.00491315       3.89091657       1.18523856       0.78787937
Pb      12.76061537       5.79809640      -0.34182560      -0.05372692       0.27938807       0.34057957      -3.47112078       4.86247591       1.97127226
I        9.76702031       7.01961401       6.32931847      -0.08443685       0.02961633       0.05838015      -0.53769968      -3.27529131      -1.19778241
I       16.00056780       6.14638136       5.32603563      -0.04968763      -0.25120074       0.03470742      -2.53557009      -0.48945712      -0.84928580
I       12.14463387       3.16126278       6.96425454       0.17125782       0.00972000      -0.28945928       1.00018137      -0.82431206      -0.59568081
I       13.49001484       9.33034728       6.51597380      -0.07712039       0.05971341      -0.07453225       1.77473367       3.03539445      -1.61225074
I       15.99146391       5.56691865       0.57502767      -0.23897620       0.06944962      -0.24637471       0.31061654       1.79670280       0.44658395
I        9.98328741       5.72708230      12.15549399      -0.27762481       0.35077946       0.12995380       2.98078056       2.08661218      -0.52351027
I       13.25226235       9.05091154      12.29027402       0.00007378       0.13629766       0.16866103      -3.47439388      -0.15975792       2.43926204
I       11.63543000       2.89079968       0.62116530       0.10626087       0.55933526      -0.17966376       0.75551436      -2.95019668      -1.65774003
I       18.62596937       6.81179484       9.76409563       0.05822910      -0.02879319       0.00164944      -1.72112792      -3.00919287       1.20514623
I        7.39658868       5.73088107       3.17252894      -0.13944056       0.02154566      -0.17760560       1.88534562      -3.94765242       0.37348223
I       12.22385190       6.40733218       2.87363924       0.03903956      -0.02599669       0.10777902       1.97169031       3.48216417       0.45254827
I       13.72970278       6.37777952       9.52562206      -0.03248587      -0.14850489      -0.04651547      -1.37067622      -4.46871545       0.53146909
Cs      16.30570885       2.79353782      16.47747416       0.08336854      -0.16348785       0.15969638       0.09662820      -0.71564058       0.56766482
Cs      10.41157633       9.85760728      22.66810579       0.04232650       0.14712857      -0.09808008       0.93034553       1.09401840      -0.30985083
Cs       9.97427327       3.97649857      22.05417370      -0.10758295      -0.07419005       0.10823253       1.11302963      -0.12008829      -1.07737023
Cs      15.62927418       8.68348803      15.64932615       0.05404061       0.07691048       0.13564939       0.09214061      -0.43597556       1.17605281
Pb       6.47422046       6.80102654      19.10706519       0.12361855      -0.17915045       0.02008460       0.09762913      -1.99832572       1.16184977
Pb      12.75128065       6.40863111      18.95727392       0.01570357       0.27172844       0.06047624      -1.06234540       0.52922956      -1.32558541
Pb       6.60450356       6.10922477      12.37723412       0.09340112       0.33781612       0.00541788       1.55671952       0.69708298       1.57396766
Pb      13.01683008       5.84075580      12.61068830       0.21443772       0.21033503      -0.06256984       1.98734718      -0.86957825       2.08557130
I        9.64544102       7.28101392      19.94629688      -0.05235889      -0.04063562      -0.04621580      -3.72900397      -0.19605307      -1.21785563