480
Lattice="25.70766828083516 -0.13821693873401028 -0.052026948399677454 -0.12436940644928578 25.688561154933936 0.12819422624929175 0.025868491326254402 0.14565000747442577 25.81030449605853" Properties=species:S:1:pos:R:3:forces:R:3:momenta:R:3 energy=-1742.9761962890627 stress="5.232114926911891e-05 0.0003476082638371736 0.00038000044878572226 0.0003476082638371736 0.00016666908049955967 0.00020820951613131913 0.00038000044878572226 0.00020820951613131913 0.0006771511398255825" pbc="T T T"
Cs      10.04008898       9.19590191       3.07541119       0.00725469       0.13044560       0.07335515      -0.15388724      -0.30086495       0.75182964
Cs       3.51453264      16.11124013       9.78138313      -0.03923595       0.15595878      -0.14962658      -0.06265687       2.28969319      -0.12381305
Cs       3.17372505       9.76676621       9.76590082      -0.11186073      -0.11367810      -0.03220787       1.77601954      -0.96327059      -1.36848546
N        9.32494110      16.12960184       2.53978974      -2.27931307      -0.67689272       0.49277078      -0.42245597      -1.18791525      -0.08385452
C        8.26846032      17.21594821       2.24914076      -0.71563117      -0.74730103       1.50386946       0.59442987      -0.52730405      -0.10520066
H        8.06495243      17.10903859       1.19057431      -0.32762408       0.00710312      -0.43621010      -0.04831482      -0.06614386      -0.13901567
H        8.56603094      18.32632386       2.43221055      -0.09363442      -1.93778254       0.32430589      -0.09783291      -0.03987163      -0.17957662
H        7.38050856      16.79759518       2.88618607       1.18534458       1.32260716      -1.09010948      -0.08466607      -0.01494331      -0.02505305
C        9.43974979      15.70384945       3.95491092      -0.63271605      -0.85515136       0.43251554       0.78053079      -0.41509455       0.30167466
H        8.57058223      15.10913793       4.28384532      -0.19700562       0.55098723      -0.30429950      -0.20215000       0.01692324      -0.29240254
H        9.61205463      16.53886247       4.60124687      -0.12561900       0.85911210       0.31538815      -0.09493743      -0.24629098       0.03371412
H       10.25399926      15.01678375       4.14193531       0.65459838      -0.19771861      -0.48158590      -0.14116838      -0.08054594      -0.09131474
H       10.20063421      16.46655149       2.25715236       2.19716645       0.62634062      -1.00905706       0.12292099      -0.06385583      -0.11312404
H        9.10751034      15.25698261       1.96992873       0.30551824       0.93679523       0.34442254       0.17472338       0.15907912      -0.19822238
Pb      -0.09770001      13.01164136       6.48184147      -0.02786568       0.03693896      -0.18107960      -1.95400951      -0.97292781      -0.93904085
Pb       5.95028415      12.90497820       6.30548338       0.23643910       0.06613329      -0.03498274       3.27844316       0.84783665       0.29217732
Pb       0.00895646      12.83810596      -0.24493251       0.13859438      -0.03646728       0.04562091      -1.78376613      -5.52649687       0.69733447
Pb       6.41769422      12.80964249      -0.30752913      -0.00695486      -0.01080923       0.11345431       0.08892655       1.33134027       0.89192258
I        2.98492422      13.80138641       6.75487030      -0.15393914      -0.03515609      -0.10303057      -0.43567935      -0.25145044       2.06874318
I        9.59122286      12.58817602       6.13812800      -0.05670540      -0.16097903      -0.08357867       0.43482610       1.58641797       0.13104477
I        5.29142150       9.90675880       6.10835635       0.04672908      -0.09850808       0.15154428      -0.74284861      -1.34808528       0.16791776
I        6.02391615      16.37221051       6.49695082       0.10023793       0.03619802       0.00055048      -0.78783820      -1.42722006      -0.99576374
I        9.66481479      12.46561505       0.89421933      -0.13711975       0.01194013      -0.07458174      -0.59045488      -0.40759337      -1.14902441
I        2.91557222      14.01913275      12.73903863       0.03560463      -0.03357320       0.00792324       2.28733202       2.20567507      -3.56968901
I        6.65188869      16.13205472      13.51257256       0.06115055       0.13563040       0.01128169      -0.41146041      -2.54069455      -1.71131223
I        6.20030295       9.73969084       0.04854139      -0.05714537      -0.40642234       0.01188525       3.04005857      -2.94490963      -0.40133139
I       12.58410389      13.13474804       9.51148096       0.21123046       0.04434378       0.38951318       3.81647048      -0.85298842      -2.27454197
I        0.36439153      11.90140444       3.45076262       0.02664446       0.15117821      -0.16331764      -1.25688535       0.61992193       1.16663100
I        5.53729464      12.97011746       3.13781469      -0.00151395       0.01206915      -0.01257559       0.67148827       1.01389126      -1.43054707
I        5.47133035      12.65049152       9.59231357       0.08915536       0.20949520      -0.03624935      -3.33598799       0.05303527      -0.00517219
Cs       9.27513004       8.80168287      15.72294688       0.10358169       0.19366148       0.03124270      -0.88566497      -1.27079157       2.80001092
Cs       3.12203330      16.47491880      22.57208279      -0.03727901      -0.27371570       0.00242058      -1.59557433      -2.80169000      -0.97095692
Cs       3.83594720       9.53514790      22.27674067      -0.01440069       0.09619704       0.12896629      -2.77131355       2.59350526       0.15922061
Cs      10.10011095      15.51506759      16.12369949      -0.19412752       0.27378701      -0.13353232       1.71176293       0.96438309      -0.34403149
Pb       0.05087290      12.83206472      19.38727554       0.50985659       0.07765515      -0.11038794       2.30554777      -0.99855167       0.61250533
Pb       6.32487080      12.69735376      19.00546348      -0.05095480       0.15019086       0.01354311       1.32109590       4.20659386      -2.38502153
Pb      -0.16040425      13.27441381      13.00761902       0.04639324       0.33565300       0.08700317      -2.20000818       4.18090288      -2.69099191
Pb       6.02743730      13.02492254      12.84174019       0.07177729       0.05254224       0.01358316       0.39338768       1.40093022      -1.08658502
I        3.37044693      13.08647352      20.10605696       0.02673823       0.07153346      -0.02871477       2.18275436      -0.82115301      -3.13413024
I        9.48206532      12.42966401      18.07310294       0.18803158      -0.13560265       0.20475818      -1.70516052      -1.98895694       0.46540241
I        5.59697742       9.68119555      18.81118871       0.08629160      -0.05122805       0.07774587      -3.29904286       0.26269741      -0.69513928
I        6.66614560      16.02819010      19.26502531       0.08223287      -0.04744410      -0.05758977      -0.52803835      -1.59153025      -3.72616267
I        9.31983620      12.54995916      13.68009035       0.10458240       0.00137461      -0.09022048      -1.12143570       1.03473639      -1.93164075
I        3.35363162      13.01513528      24.80835363      -0.01343165      -0.00591212       0.10587926      -3.01899513      -0.54786810      -0.82420325
I        5.83649262      15.98949690      25.33999634       0.08158749       0.26087855      -0.02270800       0.59575803       0.52574544      -1.19500293
I        5.87627146       9.88822745      12.65625094       0.02102691      -0.23859264       0.02148393       1.87415597      -0.46173265      -0.75538886
I       11.58448493      13.63774749      22.57662366       0.12233526      -0.39858352      -0.10432154       2.20496952      -0.20747528      -3.80543762
I        1.12166265      12.47878854      16.18358432      -0.04490118       0.24949789       0.05914225       3.17562907      -1.61696117      -1.38037134
I        5.55176359      12.79883997      15.85719188      -0.00315917       0.02302497       0.36614387      -2.51315124      -0.95386276       1.12472475
I        7.03395025      12.89939411      22.48810579       0.03660235       0.01983612      -0.13107178      -0.10840729      -1.23968085       1.39181488
Cs      14.99316524      16.24941176       2.97163822       0.08469304      -0.11957279       0.05385122       1.24676533       4.32994337      -1.06171625
Cs       9.97037032      22.28169039       9.25712247      -0.14002186      -0.09544830       0.30052932       1.60886474       1.51028666      -1.36624690
N       10.27953538      15.63186459      10.05840172       0.97761520      -0.14654736      -1.17698423       0.55266968       0.56836621       0.02900753
C        9.23983010      14.62411793       9.85330797      -0.56719084      -0.16218793      -0.49179932      -1.58290934      -0.04412765      -0.19434919
H        8.34704560      15.16434332       9.63285738      -0.90206627       0.39152202      -0.27080949       0.00824592       0.08441443      -0.21978915
H        9.08340040      14.17630511      10.79061461      -0.28403075      -1.22438226       1.21713192       0.02683530       0.00880858       0.04707539
H        9.39006121      13.88874081       9.04679148       0.49652583       0.28620304       0.19092292       0.02163075      -0.30143527       0.15951712
C        9.95055513      16.89952929       9.39490809      -1.75626921       0.40573602      -0.57578877       0.18934985      -0.72725295      -0.12069979
H       10.23075059      17.02447864       8.34844723       0.77681285      -0.35576173       0.01847667      -0.17135071       0.11784184       0.17854493
H       10.15819741      17.72329004      10.02096603       1.12655944       1.07136024       0.72309592       0.10596902       0.30742449       0.24135812
H        8.86010793      16.98810305       9.35739822      -0.25352357      -0.45385187       0.04516393      -0.12616212      -0.07114613      -0.10068657
H       11.16723546      15.20456616       9.71382008       0.31090679       0.17440248      -0.37138958      -0.01269553      -0.17435642      -0.07322926
H       10.50347181      15.77524607      11.03899506      -0.15430103       0.21848693       0.77494752      -0.03432580      -0.04918517      -0.14748258
Cs      15.84880081      21.79439393       2.80113034       0.02214259       0.14202877      -0.01786790       3.01476717      -0.46227947      -0.37282567
Pb       6.15013537      19.59682482       6.53511700       0.33436867      -0.04699945       0.02646672      -0.77680895       1.36972581       1.04633413
Pb      12.56271764      19.36479109       6.45646394       0.15421733      -0.68088339      -0.07992591       0.83628928       2.63600007      -5.84542851
Pb       5.98082981      19.15767051      -0.10447720       0.03391388      -0.12888247       0.28526927      -3.12375450       1.26504533      -1.25188806
Pb      12.64281119      19.44175626       0.09732736      -0.04411817      -0.22238189      -0.02203952       1.73652787       1.77801397      -0.92093301
I        9.63991787      20.05827309       6.14990667      -0.35782265       0.07152091       0.15457744       0.36810147       0.94393810      -0.77215948
I       16.08564599      18.93893569       5.27612717      -0.17758166      -0.10484102       0.12219778       3.83747921       0.02260299      -0.90327029
I       12.37210499      15.92170696       6.46008294       0.19217922       0.08163555      -0.06517902       1.43290917      -1.15781495       0.81055255
I       13.43332256      22.11746222       6.66374002       0.03682568       0.73880473      -0.16084711       1.66884381       3.24303794      -3.25455633
I       16.14893517      18.81070316       0.04691794      -0.23714357      -0.05396143       0.04495037      -1.28140429      -0.16725697      -1.89518361
I        9.68456769      19.74555283      13.00864790       0.14059566      -0.15285312      -0.21410193      -1.16783155       4.66990588       1.42889045
I       14.33539296      22.60268284      13.00954068      -0.15102636       0.04385710       0.04540631       4.18223204       3.12859849       1.17833520
I       12.20873078      15.76286138       0.46370323       0.00362529       0.63375163      -0.06117088      -0.89013583       0.77250371      -0.25321999
I       18.08211225      19.58228283       9.17264306       0.11483575      -0.12354656       0.34469583      -3.76384612       2.22520718      -1.87192413
I        5.64066125      19.84464564       3.35938019       0.16260430       0.10223429       0.12474685      -2.96317320      -1.80416811       0.34102906
I       12.23101205      19.75758951       3.28005314       0.10510989       0.00772148      -0.18054142       1.68595802      -0.06623362      -0.73687535
I       13.00836078      19.64458000       9.66278323       0.00218873      -0.06117505       0.16520187       2.67932731       1.13603715       3.34903403
Cs      16.90424115      16.00050180      15.53635493      -0.19826892      -0.04904577       0.28232682      -0.87806908       2.83236603       0.72715697
Cs       9.66737943      22.44449924      22.15226051      -0.01804058       0.02209294       0.10811755      -0.67653538      -0.13613298       1.98487192
Cs       9.43524762      16.52451821      23.01574336      -0.10097778       0.06088502      -0.01459920      -2.82046287      -0.36199972      -3.19768516
Cs      15.83342730      22.10939758      16.51484561       0.03763365       0.08056304       0.00196339      -0.34525043       0.07280636      -3.99902806
Pb       6.23924024      19.06322102      19.29927670       0.04272131       0.17722116       0.11521459      -0.62962387       1.51431325      -1.25277058
Pb      12.57865511      19.20570285      19.34841481       0.08795079       0.07033191       0.05517016       0.90926129       2.76915201       3.01520312
Pb       6.05209420      19.19670854      13.13564354       0.36065679       0.22436092      -0.16557570       1.59149919      -1.42989688      -0.21902099
Pb      13.15480862      19.67082669      13.15669529      -0.19426688      -0.12575948      -0.38017673       1.52655735      -4.35401311       1.67263790
I        9.41654788      19.79545109      19.38539509       0.02343743      -0.04856916      -0.01781647       0.47929623       1.42490924      -1.20252105
I       15.94280588      18.78765159      19.05570500       0.05432236       0.04929085      -0.03046195      -1.63883237       3.48865675       1.96951723
I       12.16543628      16.22320983      19.18869702      -0.13381098      -0.48125661       0.09378030       0.32208179       0.52624944      -0.07319659
I       13.17328534      22.31656309      19.60147085       0.10458519       0.29374201      -0.00227457      -0.94752588       0.24322350      -1.43372651
I       16.26496380      18.38502447      13.04535456       0.04278507       0.43618329      -0.16543734      -0.18844511      -2.34947049      -0.17777848
I        9.56392525      19.66149890      25.26450071      -0.16648342       0.12521687       0.03231285       2.14375287      -2.06773053      -0.11917734
I       13.53136164      22.44496738      25.20204110      -0.21209644      -0.00786065       0.19897028       0.22785538      -1.27139057       5.71404143
I       12.84611833      16.33553763      13.01852491      -0.22531547      -0.09844816      -0.10051956      -2.16469355       2.17608536       0.53060044
I       18.90925136      19.94392440      22.45985387       0.04642965       0.11465408      -0.44726501      -0.72822806       2.15747609      -0.00224758
I        5.86123539      19.81118182      16.26123026      -0.07215437      -0.17501306      -0.08791584      -0.47372450       1.21226110      -0.64856924
I       12.80145485      19.11917286      16.07298738       0.05203017       0.00444224       0.37547117      -1.58515195       0.53956441      -1.56497270
I       12.41770082      19.18797339      22.85815490       0.04356909      -0.04860453      -0.40695608       3.54526551      -1.71241269      -2.07065182
Cs       8.61429116      22.93032068       3.94029833       0.19968680      -0.01847950      -0.17069829      -0.84615661       2.02507411       1.30026169
Cs       2.47866560       3.34365954       9.23716984       0.17209719       0.02905912       0.24097438      -1.98781657       4.53654392       1.06969360
Cs       2.89241746      23.28946192       9.85712237       0.21895607      -0.05888631      -0.13136770       1.02757508      -2.36094061      -2.03844918
Cs      10.01214568       3.14264030       3.14139793      -0.12652137      -0.06135329       0.04768608       0.20032118       2.76739503      -1.34120838
Pb      -0.25985888       0.09472816       6.19048696      -0.01586539      -0.13417167       0.29542361      -2.39371890      -1.67597529      -1.89039387
Pb       6.67017792       0.22780402       6.61584607      -0.15665752       0.33828801      -0.13070467       2.37463069      -2.00764814      -3.57711787
Pb       0.06751981      -0.16048671       0.17877694      -0.23314349       0.15053685      -0.32444853      -3.63063982      -2.65951496      -1.21762493
Pb       6.49361078      -0.37772478      -0.21651610      -0.10402128       0.16785938      -0.05222042       1.46714429      -0.95076451      -1.37404292
I        3.42562342       1.29702215       6.62391975       0.11369853      -0.36619612      -0.41039582      -0.07654958       2.03526858      -0.06905232
I        9.82674874      25.43558856       7.38262517      -0.56168731      -0.11440047      -0.09202210      -0.60264101      -0.57540125      -0.04939617
I        5.61621487      22.99285470       6.52491748       0.00423186      -0.19160288      -0.02635146       0.46659217       1.59066209       2.72560293
I        7.20013133       3.47183688       6.29834583      -0.00875634      -0.12465241      -0.09452489      -0.42661548      -0.65779322       0.16706704
I        9.29080026      24.80560887       0.27941294       0.42440140      -0.09188881       0.00865886       3.97518792       1.48355994      -2.60909361
I        3.25127130       0.33890444      12.36539694       0.18203993       0.07437183      -0.01320555       1.26585020      -0.77540526       3.45557725
I        6.07558647       3.40581786      12.99314424       0.07805633      -0.13885933      -0.07599994      -0.19470478       0.74303167      -2.30530087
I        5.68671134      22.16096478      -0.37766086      -0.05685823       0.37730033       0.08480502      -0.64935691       0.17619689      -0.32362963
I       13.30814103       0.43032989       9.54649550      -0.08568978      -0.23571339       0.07575145      -0.38682343       2.55510241       0.51930426
I        0.19987219      25.77144913       3.33955342       0.18235560       0.02397109       0.08492665       0.23745874      -1.95091083       0.81299287
I        6.69071330       0.25732767       3.04756125      -0.09666022       0.04819260       0.16449079       0.41411689      -0.23647479      -1.28178694
I        6.33349840      26.04598542       9.73638831       0.00109779       0.01970371       0.18834960       2.58967602      -2.69241178       2.62235408
N        9.58157846      22.60288649      16.51493272      -0.51556030       0.16950667      -2.13518270      -0.22727109       0.44520586      -0.36107535
C       10.86041810      22.57561575      15.78797399      -0.50522711      -0.25525603      -1.35104169       0.05938403       0.45110557      -0.91144487
H       10.79659042      21.65332681      15.14003988       0.57958232       0.69114101       0.55628133      -0.05940503      -0.09351237      -0.33703416
H       11.67836347      22.58475815      16.51485608       0.20980797       0.08070308      -0.28221668       0.00023558       0.36382565       0.09244368
H       10.77541488      23.46041955      15.11065223       0.75112763      -0.41590256       0.37406518      -0.15223227       0.04154450       0.32849098
C        8.43609155      22.49469904      15.49849398       0.40361548      -0.40060113       1.64991565      -0.38652735      -0.10246762       0.72717113
H        8.54372747      23.39674240      14.95581516      -0.66323410       1.06725114      -0.76655212       0.11984843      -0.15177790      -0.09782964
H        7.51785315      22.23274281      16.02771819      -0.31473243       0.85214939       0.19263176      -0.04899962      -0.25325391      -0.01811152
H        8.53429564      21.63881849      14.83994339       0.83475642      -0.30410724      -0.21571807       0.14041752      -0.19387166       0.05062773
H        9.60571196      23.44573980      17.11199336      -0.66334362       0.27966200       0.33657920      -0.00757270       0.05058438       0.09726114
H        9.50522557      21.79531054      17.06374439      -0.05016815      -1.63194425       1.73938071       0.32875967       0.01636817       0.03039444
N        3.30269599       3.23529568      21.06243206       0.06455919       0.35417907       1.32041809       1.10597625      -0.01114475      -0.07335416
C        2.15783564       3.54080684      22.05084584       0.79207279      -1.70184143       0.24323003      -0.28269020       0.54266892       0.19715928
H        1.75521435       2.46302582      22.21705849      -0.21239748       2.10902106       0.12401536      -0.27956117      -0.01634283       0.02907264
H        1.54155970       4.36745892      21.67596104      -0.40792644      -0.60366446      -0.29132634       0.09523707      -0.08287335      -0.00413620
H        2.61632089       3.95336270      22.98268379      -0.22252935      -0.61515742      -0.48366148       0.03764351       0.02310196      -0.24044047
C        4.60227739       3.44312198      21.78895367       0.14499306       2.35578658      -0.49979560       0.03733672      -0.08280989       0.51656698
H        4.55168132       4.50638591      22.16925655      -0.03318627      -0.86404234      -0.05983580      -0.06411231      -0.05409256      -0.11440907
H        5.48389015       3.45534782      21.14483143      -0.16615632      -0.46094935      -0.41906841      -0.24645210       0.33860290      -0.04337896
H        4.77207984       2.79230769      22.62559065      -0.37380539      -0.74868646       0.42291862       0.06173972       0.05131636       0.26381426
H        3.21516525       3.82018413      20.21680969       0.30001476       0.60287494      -0.17902454      -0.06979133       0.11607192      -0.07222555
H        3.23590368       2.27954313      20.69957610       0.05540676      -0.68628137      -0.03577271       0.15404812      -0.17797160       0.05168865
Cs       2.64500248      22.25242789      22.65882564       0.13139577       0.00058274       0.00672500      -2.72646534      -0.32643976      -0.88623591
N        9.43728257       4.12521796      16.53128356      -2.41341690       0.65124102      -1.05700026      -1.23538532       0.07493744      -0.06744709
C        9.30395982       4.26254845      15.01134272       0.99066882       1.48544923       2.14670305      -0.17159762      -0.39162040       0.36609342
H        8.94069166       3.38731005      14.63485066      -0.89557221      -2.94400237      -0.80014799      -0.44876272       0.13513943      -0.07574112
H       10.27827359       4.44525911      14.58741862       0.52325832       0.33420034      -0.05176422       0.10692801      -0.13301520      -0.03112646
H        8.55374436       4.98036416      14.74997262      -0.37159984       0.96783519       0.07906361       0.06813523      -0.18034800       0.10858874
C       10.37138979       3.12517615      16.93483097       1.21916401      -1.49166044       1.33445796      -0.52048514       0.21725009      -0.04676873
H       11.41822422       3.47330383      16.71101333      -0.69985110      -0.36216754       0.41644248       0.16399553       0.02610650      -0.02823098
H       10.15579505       2.24273231      16.38200912      -0.01014560      -0.98446412      -0.98324856      -0.05315778       0.26881263      -0.10912680
H       10.18268276       2.75457327      17.98533211       0.50103621       0.85579185      -0.66800007      -0.01264987       0.37976604       0.15744369
H        8.43623057       4.00066560      16.95856344       1.05712104      -0.22874611      -0.38586306      -0.02665609       0.11053196       0.03751022
H        9.77606180       4.95989885      16.97921376       0.08797695       1.49959628       0.16510756       0.15344378      -0.04054637      -0.14402047
Pb       0.18704832       0.08371889      19.01750733      -0.23462520      -0.18816763       0.10360988      -1.98997706      -3.81111702       0.04840922
Pb       6.39761240      -0.22060666      19.15552997       0.47816834       0.31997869       0.12250080      -1.81122800      -0.45721286      -0.98575024
Pb       0.23270096       0.17576933      12.62295406      -0.21382991      -0.06738410       0.14460674      -4.66565970      -2.31535808      -4.85323107
Pb       6.60018907       0.03538959      12.92557729      -0.11708704      -0.06645267      -0.16895523      -0.79013283       4.64519917      -0.00335498
I        3.45826982       0.04470635      19.11785401      -0.81633973       0.15116556       0.08180598      -2.76119913      -0.29612646       2.80400484
I        9.53165217      24.98040417      19.13102625       0.23756886       0.06242660       0.00142625       2.08379722       1.77990360       2.94956004
I        5.97037885      22.54825156      19.49135764      -0.12133940      -0.40576653       0.08644059       1.52113349       2.55978068       0.73288532
I        6.55720628       3.50462145      18.50238373      -0.02673418      -0.11413803      -0.07743667      -4.55912352       1.75429890      -2.49740073
I        9.53654709      25.43311249      12.45139662       0.14484239       0.03938037       0.01379365       0.69653251       0.88008696      -1.12167382
I        3.13509632       0.05918310      25.83745387       0.23111830       0.13322974       0.03546591       1.91018418       0.11921268      -1.69335163
I        6.68249229       3.29479259      25.67705835      -0.14982030      -0.07275008       0.20173329      -0.27028225      -1.18036942       0.42291843
I        6.16302208      22.43407139      12.33978317      -0.15608444       0.32855701       0.16409561      -1.22969962      -1.35322244       0.56106369
I       12.44267348      -0.00825852      22.16338069      -0.10087783      -0.00003065       0.44175770      -0.70042286       0.52172286       2.39683714
I       -0.12468722      25.25310812      16.17267684       0.11397085      -0.09300397      -0.10627545       3.24555939      -0.19141259       0.84162835
I        5.92145926      -0.17337081      16.04571560       0.01232380       0.04440401      -0.24524876       2.42270496       0.28153234       0.24475122
I        6.78869687      25.48699968      22.63507441       0.00495769       0.02918032      -0.07437816      -0.01590157       0.54648838       1.15353778
Cs      15.95215653       2.86754333       2.78771942       0.04809776      -0.08101365       0.18160549       0.31815344       1.55303351       0.18566606
N        8.90895733       9.79286348      10.26844966       0.27182778       1.34509273       0.03351718       0.01418615      -1.39903795      -0.36221356
C       10.39102419      10.08692480      10.21571526      -0.71795927       1.37585061       0.95799618       0.84874353       0.48661933       0.33361764
H       10.81895267      10.26971872      11.20070085      -0.18254092      -0.48427146       0.40683650      -0.04379918       0.37556599      -0.09364415
H       10.58998627      11.04756900       9.71968812      -0.42968943      -0.12050849      -0.36544364      -0.20671101       0.16607344      -0.01352005
H       10.90103321       9.32828853       9.71729947       0.84865492      -1.55733464      -0.96534881       0.03903657       0.28684386       0.16021067
C        8.24769763      10.17705815       8.89632794       1.11864428      -1.00872776       1.79791538       0.06041267       0.34161901       0.12955184
H        7.21255789      10.26451633       9.16055618      -0.90987472       0.17305392      -0.24469658      -0.03592806      -0.19740838      -0.39736510
H        8.45498361       9.29071777       8.24312427      -0.02843395       1.04711518       0.11903719       0.16831931       0.17872484      -0.01163128
H        8.71093523      11.14201774       8.65530728      -0.21136820      -0.38015173      -0.51798945      -0.21883562      -0.20533813       0.06848195
H        8.55656705      10.32829906      11.13180307      -0.13664659      -0.53948488      -1.31270819      -0.08715301       0.21812774      -0.16086450
H        8.67492175       8.80140049      10.44589606       0.41496606      -0.06594926       0.18169155       0.13253518       0.10800733       0.12551553
Cs       9.36819014       3.28546482      10.44817065       0.04819497       0.04211802      -0.10462991       0.70163629       1.14797505       2.61677956
N       16.60864228       9.36302345       2.62104005       0.00704229      -0.13726703      -1.51984354      -0.29225618      -0.79253304       0.26761838
C       15.99508759      10.66477685       2.46023139       1.27879001       1.88868038      -0.21638799       0.79240760       0.88892454      -0.20947851
H       16.62365307      11.42715877       3.01108281      -0.59195652      -0.67159085      -0.40128670       0.26271563       0.01222473       0.15203663
H       14.98577420      10.73065538       2.77912373      -1.13723184      -0.39466689       0.82225210       0.10566971       0.06199289       0.13146521
H       15.97197147      10.96312766       1.40227206       0.28213543      -0.08060066       0.05600674       0.06174878       0.29178521       0.00670612
C       16.53947653       8.79667406       3.96865837      -1.52751972      -1.68468819       0.63490115       0.28980510      -0.14068038       0.41996950