960
Lattice="28.436905771845634 -0.07360354975092795 0.3926866268396419 -0.049413713736451564 26.56370018270964 0.022907882320926606 0.3409160257115317 -0.020906842347392696 26.574862570640782" Properties=species:S:1:pos:R:3:forces:R:3:momenta:R:3 energy=-4268.61474609375 stress="0.001936744200065732 -0.00040482357144355774 0.00015832636563573033 -0.00040482357144355774 0.001092890975996852 6.111022230470553e-05 0.00015832636563573033 6.111022230470553e-05 0.002175759058445692" pbc="T T T"
N       11.07788303       9.89398180       3.31687871       0.77771358       0.35220772       2.54081125      -1.12826286       0.82185097      -0.22295164
C       11.09732635       9.82017915       1.85802397      -2.66653902       1.35575756       0.07423615      -0.54570850      -0.63166927      -0.52086865
H       12.08470664       9.64036642       1.59116379       1.95534247       0.06452804      -1.04207269       0.02970908       0.13392020      -0.02694111
H       10.61222272      10.80628440       1.51425669       0.93311350      -1.31255006      -0.04608674      -0.01835250       0.16219887      -0.21653502
H       10.49514946       8.97990997       1.53178133      -0.38237358      -0.24294153      -0.14936750      -0.03586440       0.11209932       0.12978256
C        9.73562947      10.08852092       3.91678971      -1.77315751      -1.69632118      -0.22170340      -0.58568136       0.23513674       0.92290735
H        9.58966520      10.07957237       5.02683180       0.98134166      -0.46822574      -0.47639380       0.03919145      -0.08743025      -0.20894030
H        9.00797492       9.33319318       3.46965307       0.92457577       0.60377968       0.53994032      -0.05021873       0.09864093      -0.10256223
H        9.33536474      11.03559598       3.65721142      -0.17077913       1.25368599      -0.71151374      -0.06071527       0.16052713      -0.19601901
H       11.62904843      10.78907790       3.56127513       0.02150559      -1.13640372       0.13241066       0.30655870       0.00223997      -0.12289545
H       11.56290713       9.05032257       3.77998496      -0.35286900       1.16561033      -0.63260078      -0.11415277       0.05246737      -0.35922680
N        3.33676889      16.23002658       8.70406469       1.10622426       0.43868839       1.90479229      -0.84180166       0.14002819      -0.04107632
C        4.56611718      16.27067518       9.74445213      -1.55936730       0.74206612      -1.15985877      -0.67777655       0.07516045      -0.15568417
H        4.46998216      15.46289855      10.48316514      -0.29770713       0.13956777      -0.15886389       0.29208212       0.09776570       0.33389417
H        4.47502704      17.28184520      10.19515479       0.27425591      -0.56819233      -0.01352728       0.05336088       0.08222394       0.04214797
H        5.47809735      16.14252217       9.17376166       0.28264908       0.09717174      -0.22868297      -0.00159637       0.03838348       0.33700771
C        2.05304278      16.25446668       9.46042501       1.29210099      -0.40585752       0.59457134      -0.29637623      -0.75208515       0.13094154
H        2.05388931      15.40701570      10.16716250       0.13359054       0.38950108       0.14327340      -0.27584225      -0.28797205       0.04328107
H        1.32565190      16.03249332       8.74002254      -1.61163962       0.09797639      -0.99221951       0.04981887       0.23791573      -0.11302500
H        1.97138751      17.23417627       9.93007054      -0.28910851       0.01844144       0.14347411       0.03007044       0.13654317      -0.04516669
H        3.35520843      15.36154225       8.18228873       0.40356007      -0.84381290      -0.56660758      -0.11512520      -0.20643783       0.06249798
H        3.35011539      17.02902856       8.03508703       0.38761738      -0.09697852       0.32558315       0.24699016      -0.18228722       0.11287114
N        2.83598049      10.35844883       9.03903396       2.07048528      -0.29642252      -0.50203262      -0.09316317      -0.04407700      -0.59714422
C        2.73620761       8.93603014       9.58872591      -0.90629404       0.20389902      -0.48958649       0.45722061      -0.29646841      -0.06940038
H        3.60806018       8.51918604      10.13293033       0.06894247       0.72356366      -0.52751996      -0.33213429       0.11614522       0.03347711
H        2.46655835       8.29554343       8.73709700      -0.03950088      -0.10460844       0.30100305       0.04923500       0.02012451      -0.29402939
H        1.91959197       9.03181707      10.31855290       0.02161485      -0.48971106      -0.02133862      -0.04951816      -0.09046666       0.15584851
C        3.99611719      11.03198651       9.75356183      -0.24062277      -0.61767234      -0.59912041      -0.48539466       0.33321552       0.37113676
H        4.92015803      10.70788803       9.22928583      -0.27120722       0.10918085       0.40541381       0.29998440      -0.17982324      -0.09956241
H        3.95761941      10.61356752      10.76430178       0.20797089       0.56759303       0.05144323      -0.31050869       0.15525757       0.16734592
H        3.87794478      12.11242705       9.63564429       0.05598427       0.03556562       0.36202052       0.07532596      -0.02822460       0.02231852
H        1.95478270      10.86972175       9.25205719       0.01929119       0.08097952      -0.37153795       0.05402724       0.09514589       0.17325025
H        3.08419152      10.43147850       7.97966330      -0.90912332      -0.25634729       1.64120302      -0.08845349       0.04292259       0.07304527
N       10.44919685      16.25446657       4.68157534       3.56122009      -0.87391679      -1.91222528       0.12975079      -0.84528888      -0.03649322
C       10.20503679      15.02893796       3.82560866      -0.25482040       0.49860758       0.60405572      -0.29842616       0.18161404      -0.85881771
H        9.16253750      15.11945624       3.46714759       0.29161428      -0.30208409       0.09654123       0.05450536       0.03971039       0.00577822
H       10.39543894      14.18848634       4.52604093      -0.34113687       0.13622510      -0.62584625      -0.23200177      -0.05669014       0.07018061
H       10.91004711      15.03051142       2.99070263       0.08072074       0.07266003       0.05751032      -0.45153169      -0.13349666       0.05493639
C       10.55172915      17.57046874       3.94345110      -1.07274360       0.54153373       0.66718741      -0.32553712       0.24672468       0.03264760
H       11.58346127      17.78485475       3.58617422      -0.57697014      -0.24192808       0.22610054       0.03964838      -0.02010088      -0.04996461
H       10.19547445      18.24020022       4.74215508       0.66648036       0.59587904      -0.25906874       0.01308726       0.19099980       0.10298581
H        9.77583224      17.72133492       3.16380558       0.41773423      -0.69732234       0.00381874       0.07300450       0.19938154      -0.17550532
H       11.45520825      16.08274451       5.05901790      -1.55368346       0.33619476       0.10356442       0.03226673      -0.00845797       0.05684857
H        9.79177899      16.28297067       5.45257225      -0.81118901       0.11781324       0.87674463       0.06479960       0.11614486      -0.20487881
Pb      -0.38942112      13.01766730       6.26827702      -0.14591524       0.02972513       0.09425863       1.02748434      -0.82090266      -2.09194370
Pb       7.53059706      13.00873532       7.10110495      -0.18485343       0.10518042      -0.00559292       0.30112737       0.02778422       1.46961085
Pb      -0.05894605      13.38198429      -0.21912522       0.12714635       0.45164905      -0.05904123       0.13907807       0.91974964       3.44318682
Pb       7.85740680      13.15378108       0.61237751      -0.01751272       0.19984936      -0.26304083       3.79955591      -1.04452082       2.85538013
I        4.32491377      13.05053472       6.93420154       0.08080028       0.00704338      -0.04440251      -0.37431110       0.45116527       0.81630707
I       11.17914648      13.39058585       7.23618668      -0.12833385      -0.17044722      -0.04955039       1.47438526      -2.03996396       0.52103684
I        7.72183648       9.90601053       6.94963834      -0.27131301      -0.02922793       0.05767369       2.87211210       0.21940829       0.06621288
I        7.75860757      16.34955284       6.83577765      -0.24013120       0.18642693       0.24582435       1.63006400       0.78762277       2.49388776
I       10.91001423      13.69444712      -0.11131315      -0.03450164       0.00994701       0.16610830      -1.25037537       0.09230166      -0.46354817
I        3.43287028      13.54976252      12.99682612      -0.09083155      -0.06062162       0.02849286       2.38822591       5.42078802      -3.73877727
I        7.99365540      16.72727674      13.44424203       0.00566646      -0.02189165       0.00803989       2.99207747      -2.64690903      -0.86401113
I        7.39921919       9.77125605       0.36811286      -0.05715885       0.18224208      -0.01538381       1.24446311       0.05520809      -4.08670403
I       14.45441931      13.60271737      10.13584578      -0.10171111      -0.19758830       0.20449143       1.70818522      -0.45618049       3.77785716
I       -0.13814357      12.99536441       3.10456910      -0.06258432      -0.03394327      -0.13825842       0.95230457       2.59643361      -2.09408303
I        7.10836231      13.16736346       3.68056799      -0.08837206      -0.09164543       0.00893002      -1.88361552       0.35774162       0.69300876
I        7.24677037      12.99504503      10.39338302       0.04221827       0.11347820       0.10891779       1.30846868      -2.18802814       0.67553780
N       11.10567656       9.79223528      15.72671105      -2.58621301       2.34241421       0.31201490       0.28049847       0.82838459      -0.25286482
C       12.26763874      10.51355658      16.23964452       0.38951849       0.82656704      -0.70410244      -0.17484262      -0.06384365       0.28283933
H       13.10622362      10.30169640      15.53564169      -0.13544591       0.21110327       0.76423158       0.15355592       0.21574513      -0.15941632
H       12.37105261      10.16349470      17.26039251       0.68660664      -0.01738176       0.26131407       0.11196013       0.00773458      -0.33202555
H       12.01751241      11.60560110      16.22815020       0.28890902      -0.62418416       0.09700092       0.08112821       0.02832806       0.11763075
C       10.06986478       9.62344655      16.79560631      -0.75546536       0.09950126       1.09554716       0.79465999       0.15321826       0.43668816
H        9.81012453      10.54152894      17.41553847       0.73657193      -0.54018374      -0.92577658       0.00814749       0.05664714       0.19901597
H       10.45153949       8.85769879      17.47865549      -0.00441162      -0.00152665       0.15707985       0.00467776       0.00673343      -0.09259245
H        9.11488832       9.27145379      16.37935291       0.21035756      -0.04805799      -0.23588752      -0.31797076      -0.00949628       0.03865492
H       11.32711435       8.88327840      15.40231525       0.50095221      -1.61114826      -1.00966507       0.12252983       0.08392154       0.18019586
H       10.62619227      10.35898197      14.96983291       0.58565245      -0.62973755       0.20547455      -0.04029685       0.07772914      -0.13641553
N        3.81253050      15.38766744      23.03156229       1.26009920      -0.06404175      -2.14972016       1.52617674       0.52445505      -0.77269233
C        4.95593041      16.31441859      23.18922548       1.17162471      -0.17369109       0.86124687      -0.42450217      -0.02785757      -0.69185018
H        5.17846372      16.72336427      22.20286720       0.11307247       0.31716630      -0.00081611      -0.16572151      -0.01585133       0.20838515
H        5.84689387      15.72723956      23.56878580      -0.78330877       0.49465494      -0.49621789       0.17866997      -0.04048196      -0.20064570
H        4.73230957      17.09592977      23.96087348      -0.07289225      -0.47494540      -0.62549564      -0.06390687       0.24876401       0.02154276
C        2.54579728      16.11745123      22.91254553      -1.11041516      -0.06390664      -0.56135212       0.38513899       0.48317688       0.74111591
H        1.81420947      15.45128279      22.39305627       0.28276433       0.59038212       0.38139453      -0.15183142       0.30100223       0.00092125
H        2.65948727      17.08140058      22.38427744       0.29407727      -0.46012596      -0.30848738       0.09112684       0.09100560      -0.33729534
H        2.16932005      16.41759902      23.89327484       0.01456864      -0.32754097       0.33546086      -0.06260580       0.14957914       0.30053510
H        3.83835251      14.79059886      23.84483678      -0.48568897      -0.92304222       1.19547285       0.01196061       0.32036013       0.14946390
H        4.02478963      14.72513181      22.15986590      -0.54441842       1.05331135       1.08834337       0.01726083      -0.16260379       0.21791922
N        3.22942342      11.19217561      22.94803024       0.93022293       2.08892179       0.50611902      -0.03756419       0.88564597      -0.69691082
C        4.46439263      10.57728560      23.46032453       2.01900622       1.77301020       0.19904360      -0.13000346      -0.11113973       0.05765365
H        5.24064505      11.36584362      23.77909838      -1.24730649      -0.82653266      -0.26290449       0.14327959      -0.02371090       0.05235150
H        4.98987459       9.99146782      22.73562789       0.01237562      -0.51197421      -1.01987534       0.09417331       0.05584856       0.14947566
H        4.24243269       9.94997590      24.27690541      -0.46768060      -0.76948895       1.26829787      -0.15044817      -0.28692731      -0.00451190
C        2.23807971      10.19963034      22.55739931      -1.97150322      -1.12999252       1.18961929      -0.11438860       1.28310910       0.32423533
H        2.68306560       9.30870710      22.07591342       0.13943388       0.56656898      -0.14957720       0.22372546      -0.04510219       0.01858653
H        1.45996616      10.69170730      21.93962815       0.28718213      -0.34436493       0.04134190       0.49821728       0.08441122      -0.01618133
H        1.69938193       9.78141184      23.50834160       0.86749505       0.76661859      -1.29985265       0.06099280      -0.13453830       0.04628829
H        3.51010792      11.87291551      22.15713884      -0.49729495      -0.80061770       0.54796222       0.42784002      -0.01937324       0.16366534
H        2.88706602      11.83994193      23.76533147       0.09588921      -0.70731599      -1.09862575      -0.25878278      -0.09718588       0.09362917
N       10.99234353      16.77568871      16.20484871      -1.12244497       0.10114189       0.56857799      -0.22890838      -0.55805236       0.35820327
C       10.45821270      15.44514787      16.74482726       1.05032442       0.55635609       1.96727889       0.28722997      -0.04127066       0.22224463
H        9.44437341      15.59614782      17.17318264       0.25243358       0.00639737      -0.62221869      -0.12904277      -0.21069838       0.08253483
H       11.07738798      15.12593196      17.65624804      -0.36667746       0.43784427      -1.32809082      -0.00379769       0.06872159       0.24200939
H       10.54662607      14.72275539      15.94160215      -0.29080330      -0.30000195      -0.09876278       0.03130352      -0.08786671      -0.08128549
C       11.29158105      17.83760302      17.23197942      -0.86424683       0.93958169      -0.79088304       0.72980824      -0.20215114       0.77970762
H       12.16977734      17.50808136      17.75098953       0.58309596       0.02616557       0.52829559       0.07060907      -0.02893392      -0.08804050
H       10.44507422      18.02844235      17.90173154      -0.11854998      -0.71412267       0.11250048      -0.08397551       0.05390765       0.23185734
H       11.38497415      18.84237592      16.73393111       0.48936169      -0.91625728       0.07108840       0.26646697      -0.07480162      -0.13755319
H       10.23811467      17.13646707      15.57911078       0.55359731       0.00352475      -0.10105392      -0.03803586      -0.08813896       0.22245190
H       11.85453011      16.64073566      15.65469341      -0.06886509      -0.16805101      -0.29857460       0.20821156       0.32690556       0.01373061
Pb      -0.50545713      12.94859927      19.70375196      -0.00823409      -0.54438010       0.08528581      -4.00122877       1.26181999      -1.16156106
Pb       7.75402302      12.43191958      19.85806605      -0.20216778       0.10267320       0.18454980       0.98809019      -1.20303774      -1.43031851
Pb       0.32349729      13.05514315      13.19626187       0.15286695       0.12569902      -0.10677301       2.88349604      -0.89599651      -0.45197978
Pb       7.16688501      13.75207433      13.62902222       0.03729370      -0.13461453      -0.14106798       1.05973171       1.50128124       0.70355374
I        4.52155878      13.34727479      19.90294657       0.20335338      -0.03723901       0.36604600       3.80015172       2.70414137      -0.67108147
I       11.50798317      12.20852145      20.30358312      -0.18773932       0.09681794      -0.17009349       0.09838299       0.56174702      -1.28341524
I        7.38937396       9.39508645      19.96144543      -0.03213215       0.18021025      -0.02810764      -1.21326377      -0.44081051      -1.25835736
I        7.51197707      16.43154219      19.98594113      -0.07423271      -0.18268549      -0.14426094      -3.63051914      -2.30120414      -0.37058328
I       10.12001311      12.98830357      13.60357518       0.04676051      -0.18615611      -0.05436275       1.10613193      -2.92844720       0.19730708
I        3.30892228      13.43554704      25.84282740      -0.07729663      -0.16422203       0.10402294      -0.03562968      -1.17800551       3.00403876
I        7.14095155      16.28107178      27.42726026       0.12361452      -0.10246569      -0.16796380       0.26534561       0.17135012      -2.18560970
I        7.64508953       9.30506816      13.92464685      -0.17477030       0.62659909      -0.00690540       1.12014421      -0.20427833       0.67182185
I       14.47035087      13.24086648      23.20000160       0.02231265       0.08918715      -0.13652387       0.71378409       1.51181994      -2.02560803
I        0.73363744      13.29022228      16.16348665      -0.16832917      -0.00864063       0.06158338       1.73071068       0.63480716      -1.53410731
I        7.33858572      13.13837767      16.95747462      -0.03039831      -0.17554332      -0.14303696      -0.62302357      -2.04921951       2.24904644
I        7.97475044      12.98986640      23.85368869      -0.05998606      -0.03297236      -0.02217062       0.08846648       2.76438027       1.73850371
N       18.00408187      16.57981684       4.51016393      -1.20468747      -0.91836744       1.79430501       0.47928233       0.81955787       0.17949744
C       17.02074957      15.80328581       3.73132721      -0.16260128      -1.01016429      -1.42881456      -0.58561566       0.45047448       1.54997233
H       17.40216055      14.90657693       3.20166143       0.49481580       0.10630667       0.74947138       0.13411647      -0.11004555      -0.03006327
H       16.73414940      16.42422693       2.90624848      -0.40456428       0.76458995      -0.59834713       0.05962942       0.05245126       0.00593532
H       16.10589130      15.52276951       4.25421123       0.10786097       0.12896730       0.57396989       0.06994883       0.06140381       0.07468970
C       19.15414389      17.04530932       3.75515061       1.64608594       0.32805639      -0.09922302       0.04548700      -0.13049874       0.15659983
H       19.64568060      16.15585278       3.34659631       0.08756318      -0.06905159      -0.15513325       0.31170011       0.04767487      -0.12644581
H       19.96735008      17.60050239       4.36031294      -1.47975179      -0.54972541      -0.57226561      -0.06706682      -0.21765858      -0.24977320
H       18.72787540      17.62086208       2.92913657       0.31904543       0.25661402      -0.11969694       0.06914227       0.04969899       0.06404335
H       18.21313625      16.07308875       5.40496253       0.51361959      -0.05922714      -0.44028444       0.07424529      -0.07150308       0.00654687
H       17.44670357      17.36413179       4.84716576       0.07203206       0.93939588       0.36008203      -0.42048377       0.13868165       0.16513247
N       10.58902389      22.79156956       9.98633089       0.64548563       1.25560765       0.10275004       0.40957644      -1.72865844       0.75735805
C       10.50107666      24.30543933       9.81956400      -1.48922569      -0.44132079       0.70438777       0.51500247       0.04885600      -0.74791772
H       10.64419827      24.83734902      10.77917524      -0.51196099      -0.54256218      -0.05691948       0.25191914       0.09191650      -0.22207225
H        9.53806095      24.54738663       9.28785967       0.63113159      -0.17805692       0.73369045      -0.10186337      -0.14923310      -0.28846673
H       11.27775058      24.65549752       9.21212583       1.52368895       0.15714127      -1.15476782      -0.13511433      -0.05408062       0.03944811
C       11.76401961      22.31614674      10.87070212      -0.06115353       0.94591186      -0.01374757       0.07627497      -0.04689482       0.12093984
H       12.78991166      22.61087463      10.46823474      -1.38910287       0.12218959       0.31747751       0.07093160      -0.33997859       0.02508619
H       11.68772104      21.26143020      10.79083685       0.13969886      -1.40917609       0.10383573       0.01993045       0.24125541       0.21595849
H       11.62049856      22.58728178      11.96255043       0.03400043       0.13622456      -1.24997380      -0.00798364      -0.10634884      -0.00792699
H       10.71460145      22.40421010       9.01237306      -0.11607762      -0.20709708       0.64971063       0.21873762      -0.01014875       0.00326212
H        9.66111511      22.43757254      10.35016870       0.66199459      -0.12409171      -0.14875823      -0.05886698      -0.00804434       0.06774996
N       10.18553241      16.12572514       9.37277123      -1.29429888       1.39170831       1.04789742       1.07520412      -0.91995732       0.63750389
C       10.68323575      17.48287207       9.77594647       0.36869598       0.44697508      -2.98022313      -0.40642974       1.50385011      -0.26671365
H       10.34144410      17.69500384      10.74369796      -0.38901981       0.20819892       1.69676446      -0.20837435       0.05517827       0.26800045
H       10.17946103      18.20255476       9.06969945       0.66875616      -0.34531427       0.54839036       0.05577587       0.31464662       0.05265413
H       11.79709565      17.54607672       9.66288449      -0.82101021      -0.12349385       0.19905388       0.27070580      -0.42197063      -0.06560453
C       10.55595596      15.19065538      10.47521988      -0.85641596      -0.74174463      -0.38543468      -0.75516967      -0.09253841       0.01053389
H       10.08283478      15.47500008      11.47180396       0.44753133      -0.35613049      -1.28614753      -0.08892841       0.01842675       0.31114757
H       11.63097923      15.24008778      10.46547447       0.75597377       0.12157051       0.66673360       0.10740004      -0.00193034       0.02650226
H       10.36882146      14.15790695      10.10546987      -0.42281182       0.41963093       0.55642481      -0.26756362      -0.06546915      -0.03971136
H       10.61505507      15.80825999       8.51883012       0.91715255      -0.40493060      -0.95391763      -0.13942344      -0.02534338      -0.06364268
H        9.16197226      16.23945205       9.02569543       0.81600296      -0.64016542       0.86641138      -0.06224640      -0.36071717      -0.20623318
N       16.95280846      23.60527389       2.75951596       1.05388910       1.65560753      -0.32825779       0.64884431      -0.14277664      -0.03799508
C       17.10546140      23.42074443       4.23434863      -1.68632241       0.57072200       0.10565960      -0.16239690       0.16842814       0.02162776
H       16.92409389      24.33326413       4.85922181       1.05263083      -0.08164700      -0.77723798      -0.33730057      -0.10627156       0.00237164
H       18.04113989      22.85737150       4.34904831      -0.32816251       0.27348851       0.67550839      -0.03981183       0.11963158       0.14633748
H       16.15069556      22.91402032       4.53094535       0.91161861      -0.70117810       0.00654247      -0.14181815       0.18367085       0.09210813
C       17.30894297      22.31984229       2.11165681       0.57679553      -0.15806378       1.30311859      -0.00644887      -0.15994361      -0.16220454
H       16.69504384      21.49128923       2.52917246      -0.03704572       0.42091756      -0.40645021      -0.09786517       0.14644990      -0.07089839
H       18.36982898      22.10115531       2.40817126      -0.59229261       0.13903908      -0.55822617      -0.20442106      -0.20746598      -0.03962222
H       17.18309231      22.51967226       1.07566400       0.00989347      -0.51954283      -1.22520798      -0.34944072      -0.11788527       0.28202518
H       17.60025227      24.38283877       2.30221659      -0.91484078      -1.08995594       1.02738553      -0.08283647      -0.22220782      -0.04069925
H       16.00028337      23.95718353       2.49112043       0.11481064      -0.30732573       0.18288750       0.25672550      -0.21495119       0.06307949
Pb       7.55917510      20.15678369       7.09445960      -0.32052893       0.03384664       0.08113610       0.60604270      -3.27215043       2.55192638
Pb      14.21479411      19.78796038       6.88759168      -0.04433247      -0.05262159      -0.07475182       2.05006000      -3.31517563      -1.99987234
Pb       6.30187588      19.64943092      -0.24765006       0.45754342       0.04925216       0.26335059      -3.10061928      -1.69941522       2.71364261
Pb      14.42487850      19.64010815       0.43678886      -0.00894827       0.31717501      -0.11908078      -0.44168767       0.14593848       1.69702099
I       10.86862991      20.26293675       7.24185848       0.18810066       0.06931152      -0.06660048       0.42429675      -1.72922952       0.79698640
I       17.94049226      19.51464141       6.69947112      -0.10812294       0.08218320       0.08873975      -1.43291419      -0.44748898      -2.34211963
I       13.76429629      16.45228033       6.78060356      -0.00441583       0.32645998      -0.15933095       2.08912507      -2.81208606      -0.95604329
I       14.36334901      23.20675147       6.88448475      -0.18314570      -0.18268230       0.01204345      -2.56060497       3.74587078      -0.78763165
I       17.30703641      18.82340996       0.42313471       0.27113486       0.20582755      -0.08086858       1.36091414      -0.11251764       2.03119317
I       10.52008394      20.15462456      14.32751357      -0.07240053      -0.01080445      -0.23301467       1.40122493       0.24769623      -2.36782728
I       14.72433587      23.13552935      13.37191285       0.02464780      -0.06085190       0.07603007      -1.23649672       1.26698799       1.57811129
I       14.06744711      16.80570166       0.82420464      -0.29042787      -0.61463369       0.02460104      -1.85067783       0.18815329      -1.62654785
I       22.13338860      19.97798627      10.22202858      -0.13832152      -0.01801971      -0.06908831      -1.39776157       0.20548278      -0.40691261
I        6.71452104      20.21054886       3.45264308       0.02069654      -0.02992414       0.11747958      -1.11531637      -0.27792736      -5.13112975
I       14.31373690      19.95702758       3.63357275      -0.08887470      -0.05757501       0.41324382       2.36751419       0.41097601      -0.32278782
I       14.95110088      19.53763833      10.60629487      -0.04596649       0.01693544      -0.44769358      -1.39339772      -0.46944768       0.96637007
N       18.11078458      15.37645010      17.35922428       1.39133065       0.19803942       1.09230583      -0.01116857      -0.78972614      -0.60211052
C       18.52966389      15.83972918      16.00517913      -1.05550886      -1.47783023      -0.14082897      -0.06251378       0.21373208       0.83533230
H       18.62537511      14.95722273      15.35572655      -0.03318825       0.21770986      -0.04731110       0.00678397       0.17623686       0.07751305
H       19.43236820      16.37781795      16.03427121       1.59825815       0.54951876       0.42839040      -0.08960277       0.21304962      -0.11616178
H       17.82155549      16.51992354      15.61907202      -1.25974730       0.74712666      -0.48015129       0.02482171       0.13603934      -0.10621285
C       18.16617222      16.54220056      18.43610710       1.01365560      -2.82163288      -0.35366386       0.58446718       0.34319553       0.00787363
H       18.29126740      16.15434383      19.48691362       0.04285464       0.09532181      -1.07105259       0.08244843      -0.29120538       0.03279893
H       17.24109206      17.01211880      18.34786954      -1.57808560       1.22031185      -0.21400622       0.36570571      -0.02746293       0.01839558
H       19.01254582      17.12689573      18.10283648       0.13926173       0.50834363       0.10195918      -0.16133935       0.18441905       0.01813795