400
Lattice="25.68095171771285 0.01523804802292263 0.2627441297385142 0.055825579981021174 25.424682091298795 0.017564873173616963 0.1577397502695222 -0.019543736769338568 25.552771713553096" Properties=species:S:1:pos:R:3:forces:R:3:momenta:R:3 energy=-1324.02490234375 stress="0.0018625025404617188 -0.0001527509157313034 0.0003463065077085048 -0.0001527509157313034 0.0006439698045141995 5.213495387579315e-05 0.0003463065077085048 5.213495387579315e-05 0.0005883928388357162" pbc="T T T"
Cs       9.78166271       9.26478721       3.36359084      -0.24124626       0.14743540      -0.02424679       2.56121497      -1.98403767       0.00297961
Cs       4.17169552      16.58709802       9.61680748      -0.08541873      -0.27276146       0.12041144       0.10587922      -1.37559283      -0.55310191
Cs       3.60930643      10.74002371       9.63274095      -0.07545089      -0.23826931       0.07538570      -0.17535541      -2.51589701      -0.65431514
Cs       9.18300177      15.28106863       3.36655752       0.13062519       0.06301993      -0.07472664       2.26145289       1.69391866       1.28344041
Pb      -0.20891214      12.48959443       5.85856858      -0.07561899      -0.23753754       0.05073883      -0.91096656      -4.23639566       0.38461656
Pb       6.64581753      12.86175649       6.30001106       0.14739249      -0.04066724       0.20423016       2.00604691       1.37004173      -0.71770150
Pb      -0.00321879      12.99226698      -0.07636880       0.06431685      -0.27953181      -0.28647434       1.83622613       3.61867526       3.45980888
Pb       6.64164861      12.95209001       0.06558881      -0.12456669      -0.20919466       0.11169011      -0.97432388      -1.05330338       0.55820245
I        3.78229936      13.57700279       7.41436583      -0.18475307       0.02605549      -0.22092731      -0.96928920       0.21641466       1.04712229
I        9.96258983      12.51870336       6.37380627      -0.03293842      -0.02611197      -0.05425599      -0.32399566       0.74144317       0.89099212
I        7.76938869       9.39039003       6.65698427      -0.27844417       0.16164697      -0.13922070      -2.28786286       2.39638063      -1.53971121
I        7.49081847      16.14066578       6.51297995       0.05985893      -0.04460217       0.35040872       1.18672939       1.42971555       2.46538103
I        9.67122544      12.33905785       0.80129337       0.11379995      -0.16121009      -0.01840442       2.74158108      -1.49761507       1.34076050
I        3.24379999      13.45586704      12.47650670       0.25218182       0.04970973      -0.13324456      -0.51669269      -2.25529816       0.52650570
I        7.06856692      15.70153248      12.77936046      -0.00194989       0.22326976      -0.05200785       1.05072933      -0.56707117       0.73409885
I        6.81076696       9.19150702      -0.22326581      -0.12929450       0.01545664       0.04799413       1.12928442      -1.41833378       2.91172589
I       12.85999631      13.31948714       9.75884108       0.02846895       0.02696782       0.13013677       0.85573192      -3.22994504      -0.77723091
I       -0.32039313      11.72652796       2.72128785       0.11249851       0.07774427       0.33194986      -1.61992838       0.63776224      -0.87582208
I        6.09501927      12.07310083       3.21158829       0.22247173       0.18201086       0.08547996      -1.11379731      -3.88325829       1.58083938
I        6.96765913      12.59934319       9.57057096       0.07744486      -0.07955940       0.06216902      -1.31956961      -1.22118349       0.72438923
Cs       9.11313876       9.56931075      16.47097754       0.12478638      -0.29928328      -0.25250989       0.22477584       3.72697126      -0.67607508
Cs       3.97767929      15.66257837      22.21681809      -0.10341008       0.05176676       0.04403697       0.42828637       0.33260799       4.20892584
N        3.20872414       9.97334838      23.11481139       1.62204470       0.08443427       2.37199025       0.73804345      -0.46029181      -0.59331132
C        3.52395269       8.49544456      22.99168603      -1.29946550       0.08963584       0.70194602      -0.42706776      -0.00487031       0.06230281
H        2.77241150       7.97621223      23.67047214       1.07527471       0.28009932      -0.67968287       0.13068622       0.19203454       0.09152768
H        4.58559597       8.35409287      23.28446114      -0.55407731      -0.13357115      -0.12078711       0.04908314       0.02520908       0.23199110
H        3.31096084       8.21690614      21.95173350       0.25984612      -0.10585529       0.04648562      -0.05655532      -0.37378870      -0.07655877
C        4.18462467      10.79576660      22.33589093      -0.92492978       0.80231279       0.27779037       1.32434224      -0.29713620      -0.28609597
H        3.74477565      11.84532670      22.24998151       0.71032050      -1.16753266      -0.05831043      -0.11946778      -0.13567651       0.03825777
H        4.28710575      10.26465648      21.39921902       0.04640122       0.21414927      -0.60429417       0.11803317       0.21174935       0.07688289
H        5.15083651      10.77169556      22.86078956      -0.15084681       0.11721014       0.04573377       0.33447233       0.33453753      -0.00889998
H        3.35942522      10.22794159      24.18025559      -0.71992240      -0.22056603      -2.02836805       0.20313628       0.12911803      -0.20093546
H        2.22996332      10.19150251      22.87659779      -0.21645795      -0.03436889       0.09043733      -0.02794150      -0.01224315       0.10105352
Cs       9.55414451      14.93311201      16.17832668       0.08296385       0.21162245      -0.09015926       4.50218082      -0.79692661      -1.81822760
Pb       0.39619464      12.55157024      18.90603042       0.03724928       0.20235577      -0.02483510       2.24899370      -0.10539678      -3.31091579
Pb       6.87779324      12.36801425      19.60614930      -0.26605104      -0.14681109      -0.70739788       0.00148087       4.58546551       0.99814518
Pb       0.12785671      12.63451132      12.31642276       0.11269449       0.23672482       0.41969779       3.75051049       1.25375582       0.59970919
Pb       6.59640419      12.38869344      12.91990978      -0.03370896       0.57242049      -0.05425972      -2.19650761       0.98634605      -1.45097393
I        3.57258809      12.99811743      19.24904160       0.00364817       0.14064014      -0.17369222      -1.22769869      -1.91312787      -2.12200970
I       10.05420689      11.96595027      19.01735913       0.03078453       0.06209033       0.15777600       0.90599172      -1.33676258       0.47449021
I        6.30959180       8.98404700      18.94515466      -0.13071231       0.30169141       0.03937658      -3.61074220      -1.71624475      -1.43940197
I        7.11669039      15.41639710      19.83489066      -0.00584581       0.41587081      -0.10586536       2.68763957       1.36073334       0.94640850
I        9.68941410      12.26116829      12.83494250       0.30935650      -0.14921379       0.06630137       2.86991549       0.54394547       1.53316101
I        3.53471709      13.07145612      25.32203495      -0.09721106       0.05131128      -0.00079706       0.02976935       0.11578117      -0.36398120
I        7.46713877      15.85695355      25.32246235      -0.07159560       0.07447904      -0.02290907       1.84009806      -1.83443488       2.01924675
I        5.65249014       9.61129906      13.18518473      -0.08752570      -0.56537929      -0.02820349      -2.01441223      -1.82341199       1.45367199
I       12.72916646      12.87690945      22.60342620      -0.01123166       0.11155828       0.01787195       2.52236421      -1.12640282      -0.26358797
I        1.05029966      12.57011726      15.76993450       0.09948148       0.00286334       0.13444078      -0.93873644       1.34925967       1.99886552
I        6.80543470      12.51196554      16.15096217      -0.18274453       0.02996336      -0.09293089      -0.93700013       1.38734729       0.38211666
I        7.43471671      12.52636153      22.47456571       0.17158741       0.03492368       0.57291165      -3.24688442       1.96063196       3.65174113
Cs      16.03565318      15.80504292       3.60424065      -0.01720795       0.04202744      -0.10300483      -0.63480159       2.69122624       2.40446839
Cs      11.18656800      22.37947615      10.00119329      -0.21615272       0.02408297      -0.08418771       1.95457457      -0.77698159       0.05652209
Cs      10.19856287      16.28540598       9.38620621      -0.04377295      -0.11381390       0.11336982       0.18386716       3.25463814       1.75555876
Cs      15.77454285      22.06122517       3.50674590      -0.05493915      -0.01875557      -0.00780403       5.61208507      -3.12957032       0.42746039
Pb       6.85654369      19.47676331       6.67338780      -0.07284174      -0.11317202      -0.15020153       0.55160878       0.28132432      -2.56343141
Pb      12.79401076      18.87846028       6.53068933       0.16990652      -0.12561587       0.12410866       2.37531715      -3.20071605       0.95573452
Pb       6.33463846      19.85471518       0.16433395      -0.06017220      -0.15949294       0.20805791      -2.18715468       5.76036780      -1.65042923
Pb      12.57178803      18.84017488       0.56887536      -0.09180445      -0.05266394      -0.13594054      -2.50020957       0.51328516      -1.44171095
I        9.75976280      19.74437598       7.69269640       0.20534591       0.01808299      -0.06035133       0.82780784       1.87290854       1.49437799
I       16.05485277      18.26374423       6.61880641       0.15826789       0.14384353      -0.15165914       2.48287161      -1.68784730       3.34232249
I       12.64481484      15.56547507       5.86072959      -0.08745333       0.47217278       0.10076202       1.13618926      -0.16171157      -4.24906494
I       13.21731452      22.05704760       6.58371096       0.20037739      -0.08801067       0.03914999      -0.73470636      -0.64665750       0.07296418
I       15.61909402      18.29533533       0.72536948       0.22072794      -0.03711669       0.05082985      -1.60049773       2.81517443       3.58944196
I       10.05014547      19.25990744      12.91036491      -0.17452004       0.22671915      -0.05604668       1.41543198       1.70499499       1.12932576
I       13.94852405      22.41070194      12.42787244       0.00584615      -0.16164818       0.17531568       0.19220792       1.39987201      -0.07367581
I       12.07148723      15.67993069       0.93411080       0.07764573       0.17338253      -0.10955159      -0.36502739       3.56343990       1.97381563
I       18.93793055      19.31888885       9.95145763      -0.03084222       0.00341309      -0.60058017      -0.19980541       1.38445634      -3.77639532
I        6.68193752      19.05673858       3.32460041       0.21159529       0.16142997       0.07889823      -0.81211248       3.77560997      -2.59377511
I       11.66174871      18.93230289       3.69562249      -0.03256450       0.15867742      -0.32505607       0.60221060       1.44583221       4.18856640
I       13.49503624      18.48568738       9.67091721      -0.05791768       0.02679265       0.25161997      -1.97620631       0.28798409      -1.33502181
Cs      15.50855024      15.61316609      16.49330355       0.15364514       0.00456826      -0.05963590       1.46074513       0.17490701      -0.60157017
Cs      10.58510639      22.10650569      22.80680494      -0.01795076      -0.11475340      -0.23097223       1.90138342      -1.40307847       2.06922550
Cs      10.02088611      15.40072211      22.15170519       0.03403007       0.19242894       0.11905161       0.43246237       1.80890397       2.33231039
Cs      16.29457934      21.93804113      16.05195562      -0.32362944       0.05526413      -0.02503874      -2.90754502       1.76485978       0.15671228
Pb       6.65076429      18.73480483      19.32861831       0.00652537       0.11248260      -0.12013129       1.16393050       0.03157775      -3.56929008
Pb      13.10786164      19.01317760      19.19395741      -0.11543275       0.02443409       0.13793959       1.23297569       1.17649072       0.44025455
Pb       6.79162971      19.02512628      12.91077862      -0.02509223      -0.25391225       0.30015886      -3.73648389       1.30518810       1.41439158
Pb      13.21112448      19.03181687      12.82951424       0.00524327      -0.02664429       0.05669006      -1.37479572      -1.53977706      -3.32900145
I        9.55195983      19.75244654      19.35089346       0.28621427      -0.02495556       0.12270317      -0.17686639      -1.85926109      -2.72785419
I       16.19555701      18.33815945      19.20097154      -0.20337965      -0.01767810       0.13212032      -0.85500416      -1.05880958       0.03868960
I       12.25782056      15.97557631      18.82245599      -0.01512118      -0.02914558       0.04074481      -1.37009653       0.79421640      -1.36707935
I       13.20985500      22.30342965      18.69232260       0.10798699       0.09023277       0.21426380       0.25491866      -3.29097529      -2.08757918
I       16.10165589      17.67683724      13.23647457      -0.02627237       0.03743602      -0.04170759      -1.23684913      -0.52633650       1.65035774
I        9.56747929      19.46046222      25.43420914      -0.03795269       0.14732762      -0.04130844      -0.46071187       1.79437799      -2.47191623
I       13.22104437      22.06214690      25.67154175       0.03204707       0.10372158       0.12208280       0.50272485      -2.18240143       1.32200673
I       12.25995544      16.03641125      13.28311470      -0.00724019      -0.19380100       0.04217036       0.18266015      -1.51814669      -0.30031191
I       19.12169194      19.00348713      22.58658903      -0.14195054      -0.08581552       0.05723044      -1.72779538       3.33301515      -0.06906039
I        6.88683749      17.95173894      16.34069233      -0.01881330       0.02363835      -0.02166165      -2.05652859      -1.46431010      -1.41322763
I       13.43086875      19.29912039      16.18836789      -0.07513880      -0.02499617      -0.24756431       1.81049901      -1.02954983      -3.67918655
I       12.53692223      18.16713037      22.80971157      -0.03980771      -0.07920532      -0.05870263       1.56573193       1.01271951       3.42143974
Cs      10.02428690      22.42202691       2.74921053      -0.06908902      -0.04291192       0.21073709       0.39999141      -0.87489540       3.61981836
Cs       3.78110043       2.94118918       9.61329889       0.00696048       0.13981734       0.24388366       0.16160474      -4.26321364      -0.90654459
Cs       3.23600633      22.18952444       9.69722369       0.19556312      -0.01207533       0.02681684       0.66584104       0.50555847      -3.15186647
Cs      10.11408846       2.84796785       3.16643400      -0.16764048       0.03473524       0.16167566       1.64518949      -0.73520006       2.05107351
Pb       0.23711320      -0.51973688       6.48991266      -0.05787522       0.40819697      -0.07081134      -3.11558878      -1.07237811      -1.17753615
Pb       6.27381553       0.13546306       6.40023792       0.13770224       0.06947369       0.08318673      -0.72120759      -1.24052376       1.81936338
Pb       0.68717231      -0.22086877       0.26687212      -0.13685292       0.26545844      -0.03126564      -1.74209402      -5.76817536       0.05394603
Pb       6.74537488       0.20702732       0.26457012      -0.22701080      -0.01714759      -0.33753488       0.07250023       0.93908656      -0.88439638
I        3.17961898       1.04058591       6.69291120       0.11332138      -0.31301287      -0.10058266       0.25270521       3.30089531      -2.13909772
I        9.81689914      24.75610170       6.42413654       0.05063707       0.05258914       0.08560189       0.99138734      -0.93321594       0.60956585
I        5.86699547      22.56697387       6.18611772      -0.08382770      -0.37007831      -0.02342503      -0.52621468       1.96825704      -2.07121987
I        7.27749608       3.15210413       6.61034989       0.01676930      -0.00561753       0.15441918       1.46828964       1.19852396       1.55487405
I        9.86135502      24.82263656      -0.13740289      -0.07574745       0.08868209       0.02249221      -0.75260590      -2.56894991       2.21115342
I        3.33918601       0.25263122      13.26953130       0.02512093      -0.01626022      -0.12395538      -3.33161293       3.00767314      -1.90210295
I        7.05252627       3.09444127      12.61695057      -0.08809092      -0.08685414      -0.08900775       3.64170228      -0.47361390      -1.15113833
I        5.99653362      22.74821845       1.30073104       0.05188682      -0.14450575      -0.12759581       2.89713192       1.60012805       0.16564967
I       12.96028118       0.60278191       9.87220769       0.02942959       0.02120290      -0.50838793      -2.58240849      -0.19836927      -1.20154389
I        0.94607360      24.68820683       3.42184743       0.04677812       0.03878668       0.07741382      -1.25206473       0.64330839       0.62695500
I        6.88210154       0.67405701       3.23383855      -0.01311037       0.13790056       0.29444263       0.81507388       0.98156076      -3.27952003
I        6.12379512      24.76843178       9.80480188      -0.02347114       0.07219475      -0.23291417      -1.11262755      -1.57490526       1.30576562
Cs       9.56192309      22.00636043      16.07506830       0.05782008      -0.01259553       0.07425692      -1.98905075      -0.26918300      -0.07511502
Cs       4.14118577       2.84432456      21.89811561      -0.07548055      -0.01917710      -0.00440003      -3.60078614      -0.66620830      -1.58997366
Cs       3.35964739      22.28652348      21.56339453       0.07914699       0.07106975       0.10082821      -0.88054311      -0.06628932      -0.78975451
Cs       9.90361755       2.94209096      16.04482706      -0.14766118       0.00795371       0.15965926       3.69251913      -0.33933076       2.68667209
Pb       0.16130714       0.09863784      19.34283315      -0.02987395      -0.13924837       0.02607908      -1.48806388      -0.78869471       2.07681492
Pb       6.83629302      -0.41561968      19.12000818      -0.23206962       0.02986565       0.08581995       0.61067738       4.13224425      -1.98909356
Pb      -0.21866510      -0.04807371      12.88285642       0.21477139       0.04431677       0.05058314      -5.07661642       0.93514502      -0.07306805
Pb       6.60717038      -0.58242854      12.78990357      -0.01344023       0.18640733       0.11309240      -0.95251051       3.73051311       0.59913613
I        3.47389068       0.16251817      18.90429146       0.02299298       0.18401959       0.08085969       0.48258396      -3.31942098      -1.52133369
I        9.86823743      24.50064880      19.37553819       0.29363964      -0.01989539       0.05716491       1.17353629      -1.40851301       3.10210661
I        6.12464885      21.93681079      18.46382736      -0.05437724      -0.04257188       0.13115780      -1.94018340       0.68109073       3.84824703
I        7.39209030       2.91231318      19.28494723       0.03942251      -0.12997220      -0.12752951      -2.72508252       0.63964974      -2.34214353
I        9.96001192      25.29319871      12.39857636      -0.29110921      -0.15587193      -0.01406201      -1.25582917       1.97887240       0.59974371
I        3.46622426       1.25449663      25.60608774       0.31267769       0.00630473       0.00426723      -0.12768623       2.08202974       1.73446414
I        7.83804031       3.20051982      25.28163850       0.12759734      -0.10465756       0.15586925      -1.00954223      -0.08963365       2.99664557
I        6.24030033      21.94956688      14.00791753       0.02904210       0.02227235      -0.17834711       1.96168759       0.24119291       3.26702791
I       13.06811543       0.67101343      22.43551780      -0.00375041       0.11430128      -0.40360461       0.27923287      -0.30456983       0.19566502
I       -0.23893037      24.97927076      16.14657920      -0.10137741       0.05431728      -0.21120039      -2.12422915      -1.68451773       1.21160995
I        7.08999632       0.02360522      15.96807793       0.12554715       0.07981020       0.05090099       0.16745385       2.34151836      -2.80428504
I        7.19782406      25.71329567      22.38554872      -0.20075258      -0.15436981       0.01501385      -0.68074791      -0.35269704       1.86196159
Cs      15.84756341       3.30701138       3.47925944      -0.02737841      -0.12900635      -0.04963091      -2.18234682       0.97313206       0.35475592
Cs       9.81499240       9.46535475       9.91098498      -0.05139930       0.08021642      -0.04055250      -1.21586501       1.56532744       1.49168516
Cs       9.73989263       2.96885627       9.54066926       0.10797299      -0.02203007       0.06523841      -1.32842369      -4.68090330       0.14431617
Cs      15.88624663       9.56514379       3.68757428       0.06775156      -0.08810673      -0.11461719      -0.35472239       2.83856526      -0.65819078
Pb       6.64155312       6.31280645       6.86917942       0.33761129       0.11429607      -0.39038311      -1.49100392      -0.48901375      -2.45298221
Pb      13.04496880       6.26199221       6.69721589      -0.09068015      -0.10394025      -0.17466706       3.99325780      -2.38382014      -0.85696129
Pb       6.36265266       5.86404094       0.18612026      -0.00827486       0.51601368       0.03480927      -2.02387737       1.01697720      -0.48102357
Pb      12.96387301       6.69657135       0.26293356      -0.03201035      -0.05809480      -0.07414203      -0.22276511       0.77670849      -0.03108979
I        9.79101693       6.36631861       7.43527312       0.32562819      -0.07279770       0.06061043      -1.96977943      -2.82489939      -0.38798866
I       16.14657715       5.67664016       6.23836694       0.05364129       0.19859894       0.12815115       1.43505951       0.64448716      -0.13339955
I       12.55052848       3.07896756       6.09520672      -0.03040159       0.06670318      -0.01933275      -0.08330543       1.07732882      -0.98432168
I       13.59360326       9.63477880       6.83055371       0.12446529      -0.66496884       0.16926422       1.07308055       1.83841635      -2.22376945
I       16.23746107       6.03860222       0.82278839      -0.14937374       0.19485855      -0.01921175       0.20643160       1.75020714       1.09611096
I        9.71912054       6.58466250      12.32887120      -0.12737621       0.05927628      -0.02417570      -1.03527034       2.59581572       0.21642647
I       14.15040481       9.82729960      12.45220684      -0.21570071      -0.09743096       0.00923814      -1.83088191       1.63068561       1.64429883
I       12.45398546       3.62213782       0.49666436      -0.14328224      -0.30946634      -0.08195543       0.60707119      -1.27989315       0.34097343
I       19.06672202       6.82647360       9.86684568      -0.06429970       0.08681982      -0.00338214      -0.94795784       0.46052654      -1.80221840
I        7.20970737       5.96507755       3.35242021      -0.05466823       0.00095789      -0.13630036      -0.86227403      -3.20479492       1.77289342
I       12.64394531       7.11266091       3.43531060       0.16091393      -0.08569089      -0.05294048       1.09237038      -1.34686947       0.29588758
I       13.27879613       5.55784647       9.62691402      -0.05901367       0.07813325       0.31961978      -0.39067578       1.25952481      -1.73821468
Cs      16.09670483       3.39096854      15.71573089       0.00934579       0.05390406       0.36046362       0.74888876      -1.92289526      -0.23479610
Cs      10.00711879       9.85935297      22.66506537       0.12720487      -0.19063488       0.00382435      -1.79116075       0.67488087      -0.70523908
Cs      10.10839771       2.90095751      22.42041027      -0.06283704       0.18083077      -0.10889604      -0.48100643      -0.57707232      -0.20981307
Cs      15.94741393       9.03339335      15.84174674      -0.03056166       0.07234922       0.11819283      -1.97805118       0.72666645      -0.28952076
Pb       7.13951572       6.04753062      19.20473136      -0.08100733      -0.03481872       0.16767023      -3.64731910       0.62560807      -3.00078230
Pb      13.11750290       6.31577549      19.41192763       0.27116448       0.21943531      -0.11074972      -2.48829359      -1.21607655       1.74832321
Pb       6.27258657       6.05346614      12.72184530       0.12249066       0.18335763      -0.01117674      -0.29313298       2.02901232       0.65363767
Pb      12.79767360       6.51505525      12.87761323       0.03315896      -0.10992993       0.09382342      -3.07915397      -0.05140897       2.64945935
I       10.17112378       6.85202967      20.03144473      -0.32067267      -0.00189517       0.01022094      -0.06206274       0.30139088      -1.49677458
I       16.43607165       6.08131858      19.08498595      -0.00622810       0.05974556      -0.09957029       0.04421644       2.18888527      -1.91345408
I       13.37586003       3.43576049      18.34217017      -0.28095126      -0.24457874       0.18464073      -0.01936248       1.79735699      -0.53646098
I       14.12289417       9.78325660      19.58847324       0.01696961      -0.22689344       0.04619496       0.63843716      -0.65393981      -1.33924635
I       16.11997289       5.80811325      12.98479551       0.02906888       0.20614626      -0.00787719      -1.37574594       0.28068603      -3.66609194
I       10.00843240       7.33913995      25.44712729       0.17592391      -0.25182877       0.01589737       0.93957604      -3.93617413      -1.40489916
I       13.64734335       9.63891886      24.88572798      -0.10496517       0.00236140       0.14142284       2.86421872       0.92590753       3.38637436
I       12.41126136       3.43486229      13.66912281       0.22536293       0.13063024      -0.35565572      -0.79391147      -2.76676723      -2.36040226
I       19.13948215       6.97102614      22.69000300       0.02048134      -0.01334965      -0.00378629       1.08066057       0.57867975      -0.75739650
I        6.97840919       6.20259673      15.90738961       0.03141854      -0.09872645      -0.08044547      -0.64824307       4.15760658       0.50866294
I       12.22062351       6.87746737      16.00895876       0.09184694       0.16915499      -0.01533238      -2.08922604       1.15089198       2.55558088
I       13.74420939       5.99165558      22.40984768      -0.04368665      -0.07494895       0.12068693       2.78805026       1.34909684       0.68136718
Cs      22.57775325       8.87127170       3.45843557      -0.01157598       0.05441304      -0.06269810       0.74642262       2.76625747      -0.79725785
Cs      16.48236528      15.62210700       9.75203346      -0.02896711       0.18247381      -0.12174173      -4.49369740       0.91527716       0.86527648
Cs      16.47914262      10.02429210       9.45601441       0.06349347      -0.13213182       0.07868245      -0.04202903      -0.54870195      -2.10103481
Cs      22.06992251      16.10704889       3.53810372       0.23643937      -0.09577494      -0.04001433      -2.00225124       0.92696398       0.46041295
Pb      13.10688490      12.54940080       6.67229568      -0.14285292       0.46807177      -0.06309420       0.72411765      -3.66452800      -2.37690446
Pb      19.26524236      12.60458971       6.29128570       0.37030977      -0.04513889      -0.00254008      -3.44196999       0.72083038      -1.45123647
Pb      12.92447516      12.73751585       0.28559766       0.01000607      -0.04257938       0.05295773       1.77056299      -0.24123312       1.58211836
Pb      19.52522000      12.52668774       0.14067519      -0.02553835       0.27188300       0.01225735      -0.62609076       1.29397624      -2.43314986
I       16.45442067      13.52262154       6.51488428      -0.50109957      -0.10010025       0.19105720      -0.38657883      -3.22048591       2.15514672
I       22.37404962      11.93706619       5.86174374       0.35322880      -0.08508597       0.09811828      -2.26214575       0.66443967       3.39940246
I       18.88687323       9.22484789       6.15601340      -0.12507346       0.39625825      -0.00915485      -3.95089604      -0.15336957      -0.00758388
I       19.86296055      15.83684862       7.20780978       0.08880802       0.04685654      -0.02936151      -2.30285388      -2.64169666      -1.85701849
I       22.53435458      11.88711176       0.11223714      -0.03264823       0.12031336      -0.03308232      -0.98675102      -1.92372554      -1.08093318
I       16.28631060      13.47848460      12.72856000      -0.11548013      -0.11987367       0.04758996       0.10705233      -0.71768392       1.33183285
I       20.41950052      15.81558850      12.96745968      -0.00022438       0.32009995      -0.24198351      -0.90731909      -0.08615098       1.48366855
I       19.04277400       9.78301138       1.25178093      -0.09148055      -0.27736589       0.02811415       0.41028966       1.03671548       1.00024930
I       25.24715823      12.90751902       9.63846727       0.01687049       0.18982679      -0.37241942       2.15394913      -2.54190450      -1.60884984
I       13.36478595      12.50831653       3.47376371       0.08474801      -0.22730722      -0.17098257       1.71093455      -0.58462023      -3.38857344
I       19.28058800      13.59453924       3.20962349      -0.05720965      -0.17169002       0.13095650      -1.06736484      -0.39940114       1.97576841