880
Lattice="27.118412212400575 0.12768219682826845 -0.468445033978967 -0.017372117629126313 27.108619473322072 0.06108871187422114 -0.4179606081647043 -0.01640728269100891 26.58712129762377" Properties=species:S:1:pos:R:3:forces:R:3:momenta:R:3 energy=-3846.059326171875 stress="0.0015310901217162611 -0.0002846319403033704 -0.0005857230862602592 -0.0002846319403033704 0.0012712848838418724 -0.00042974046664312476 -0.0005857230862602592 -0.00042974046664312476 0.001467599766328931" pbc="T T T"
N        9.93998850      10.65741576       2.63419081      -0.25008268       0.18924681       1.46915266      -0.08825809       0.65381302       0.07821346
C       10.92210984      10.98828973       3.71516159       1.73596860      -0.52609785      -1.11573675       0.12789159       1.76754267      -1.31348344
H       10.40034243      11.69802228       4.35309828       0.48926218       0.30271899       0.28016462      -0.15880109      -0.02039255      -0.07933901
H       11.92482784      11.28635198       3.24877687      -1.36398707       0.23260930       0.61207686      -0.03006552      -0.10485013       0.16475169
H       11.15748592      10.04489643       4.24422008      -0.23029307       0.35133140       0.09858407       0.13875765      -0.19172776      -0.06767960
C        8.82308161       9.96196269       3.38810020       0.41096519      -0.34628551      -1.25531389      -0.52784950       1.24994159       0.05854444
H        8.41137217      10.64360183       4.12850448       0.35405110      -0.13324669       0.63576031      -0.20742012       0.09368358       0.21515283
H        9.28183497       8.98612683       3.69281055      -0.81161725       0.73877140       0.39656137      -0.02864163      -0.03554739      -0.15493937
H        8.00132468       9.80382302       2.70189694      -0.27232972      -0.37138249      -0.43341952       0.02336281      -0.22126432       0.05618886
H       10.33542730       9.99530619       1.95456879       0.02453749      -0.03821382      -0.42383759      -0.21117226      -0.04439734       0.11660772
H        9.62944053      11.53327344       2.17057200      -0.09672613      -0.27873978      -0.21401635       0.09959170       0.03229121      -0.06289206
N        4.22226826      16.57179961       9.37376826      -0.85676891       0.14674689       0.51164511      -0.74729989       0.27811177       1.24338528
C        4.06045976      17.74054634      10.33093533       1.68667143       0.39399456      -0.36592089       0.30115924       0.30375917      -0.49751682
H        5.10338129      18.19348047      10.25365309      -1.15112517      -0.07294838       0.76842128      -0.09506260       0.11279682      -0.04442819
H        3.80173322      17.33520114      11.35562689       0.23803606       0.58023325      -0.98293344       0.17737793       0.14783282       0.23893534
H        3.35871736      18.52098242       9.92747191       0.18244192      -0.94924284       0.29782552       0.05796703       0.28109454      -0.11786573
C        2.96528250      15.73156788       9.45267481       0.46928900       0.71444090       0.32533051      -0.19139811       0.28058875       0.49122238
H        2.10586511      16.27228053       9.07741056      -0.05271521       0.37508987      -0.58435964       0.04217548      -0.10973780      -0.05666772
H        2.76839324      15.67204813      10.53038194       0.08977974      -0.71930902      -0.08856010      -0.14779871      -0.17369581       0.07528608
H        3.10514401      14.79730919       8.91446336      -0.00800519      -0.22062673       0.15623020      -0.08186302       0.12529467       0.09824436
H        5.02953518      15.94844290       9.67388401      -0.27101899       0.31409752      -0.01673724      -0.07206540      -0.22846867       0.07906646
H        4.50499229      16.95464998       8.44531332      -0.43232977      -0.33346136      -0.02925509       0.07136374      -0.34119316       0.03609606
N        2.38702213       9.56765382       9.56066852      -1.92532660       0.55843636      -2.51938944      -0.21545970       0.11098688      -0.42247247
C        2.68924096      10.73831896      10.34265870      -0.73889854       1.24895785       0.99511708      -1.01464519      -0.52044997      -0.46985433
H        1.78641674      11.04671220      10.92328459       0.77226464      -0.06253970      -0.15008369       0.04404256       0.19540284       0.02147283
H        3.02495482      11.55518248       9.69206781      -0.21603752       0.06503964      -0.16309575      -0.31340437       0.14564270      -0.20644456
H        3.55933331      10.46816772      10.93249822       0.01261367       0.18337607       0.78911540       0.30200699      -0.07065243      -0.04067218
C        3.64106352       9.04844690       9.08634256       0.04263044      -2.77720235      -1.20645262      -0.20467436      -0.65398674       0.52219273
H        4.19615943       8.61270602       9.97565357      -0.27432659       0.29499387      -1.15652368       0.13274232       0.02855697       0.11702932
H        4.15279891       9.85643250       8.58590538       0.58626142       0.46137849       0.02922574       0.10880411      -0.32439981       0.24424764
H        3.39165726       8.29051874       8.24445599       0.71891426       0.72944261       1.53374606      -0.19280591      -0.03468308      -0.19713672
H        1.72523168       9.79472633       8.69301337       0.92281637      -0.03372936       1.14539172       0.13962230      -0.03323408       0.04462516
H        1.81741960       8.88059470      10.04768630      -0.20444339      -0.69622229       0.68587420      -0.02473366      -0.02451019      -0.21533981
N       10.07252758      16.74066469       4.00507783      -1.70620272       2.13098098       0.94383543      -0.84375901      -0.54708727      -0.23156158
C       10.35270297      17.97159899       3.14727030       2.10864005      -2.16058748       0.20441025      -0.68514294       0.18108529      -0.88242040
H       11.41560919      17.74633093       2.72801748      -1.75114798       0.95880974       0.38250564      -0.11529847      -0.51935649      -0.10476692
H       10.25573842      18.78062646       3.81271315       0.45669897       1.40157740       0.87264893       0.11856343      -0.03411032      -0.32807404
H        9.57441129      18.10743526       2.42000487      -0.37323296      -0.37192188      -0.73580721      -0.17197928       0.18081230      -0.32676113
C       10.01109826      15.55282651       3.21165999       0.04392031      -0.69209848       0.01536065      -0.03773758      -0.73821295      -0.17185951
H       10.06188959      14.69982011       3.88594420      -0.54639184      -0.27234584      -0.10306704      -0.18271939       0.08916133       0.15953068
H       10.90653117      15.55111475       2.64079148       0.79027507      -0.25638711      -0.98481037       0.29844682      -0.38606385       0.16083504
H        9.11566717      15.66910859       2.58712044       0.09293893      -0.64711348      -0.10000536      -0.08994298      -0.11109527      -0.09875773
H        9.13953451      16.87557025       4.45176541      -0.00185972       0.07980674      -0.23330297       0.19085521      -0.14703448      -0.16367290
H       10.64226996      16.68821923       4.85400774       0.90823198      -0.12448959      -0.11888929       0.10849697       0.10314575       0.22974223
Pb      -0.27759933      13.29423018       6.71333707      -0.04991187      -0.02002043       0.43367569       0.64088663      -0.75917100       3.25212145
Pb       6.55750051      13.64152134       6.75335604      -0.24239623       0.05082450      -0.22841682       0.33201017       3.13245964       2.08921101
Pb       0.18415782      13.82840102       0.09134978      -0.17252190      -0.27550357      -0.25663353      -1.89770674      -0.98235334       2.21225773
Pb       6.84222726      13.25297095      -0.21507863       0.26593507       0.47998913       0.19325659      -2.85907371      -1.01401637      -1.11071629
I        2.73589539      13.29611480       6.68547267       0.45993177      -0.04774240      -0.11236614      -1.11696457      -0.68910955      -1.45192713
I        9.49480212      13.63333856       6.75699680       0.38307346      -0.04027425       0.08578125      -1.01803826       1.84412739      -1.18564346
I        6.01271774      10.62527190       6.81116649       0.18861094      -0.02849184      -0.13820288       2.14963941      -0.63180317      -1.47165555
I        6.70039649      17.08763818       6.36819740      -0.01947149       0.04235988       0.03345450       0.76749341      -1.40595531       1.72288503
I       10.07429412      13.32625736      -0.17683309      -0.23214775      -0.12407861       0.11601090       1.48714020       1.17426248       2.69489685
I        3.01452150      14.03339027      13.46058601       0.10524266       0.00456290      -0.07831689       0.50275199       0.28396405       1.22365012
I        6.47852387      17.03816501      13.12289767       0.04622892      -0.20796663       0.17185723      -0.50914124      -1.16254011      -1.37292164
I        6.19725357      10.45937989       0.04314693      -0.20024442      -0.43424386      -0.07236212      -0.25146579       0.39491276      -0.97213322
I       13.86768488      14.63633493       9.76477451       0.04817122      -0.09375162      -0.29415698      -2.31434954       0.93287058      -1.80163088
I       -0.82352527      13.16426545       3.83385147      -0.08105578       0.01706144      -0.70090388       1.39819091      -0.67621230       2.09296075
I        7.19622380      13.45651289       3.04113258      -0.32153075      -0.07200221      -0.00744545       1.84477295       1.91077417      -2.61217577
I        6.35095204      13.81774552       9.81748332       0.08831816      -0.09140043       0.27615532      -0.58266446       0.79645075       0.30539705
N       10.11678376       9.77956033      15.56598148      -3.22886328      -0.10293474      -2.12162815      -0.45420565       0.39817765      -0.34081956
C       10.91840627       9.75804241      16.76931268      -0.34606227      -1.82069672       1.32852145      -0.69819904       0.69314934      -0.80080637
H       11.28837023      10.74474990      16.96686986       0.35585677       0.65202072       0.18590270       0.11369407       0.26377034      -0.12340632
H       11.71661257       9.07048408      16.48395334       0.58105467       0.01113617       0.64619929      -0.03159206      -0.07556458       0.18100732
H       10.38123925       9.31695100      17.67549927       0.33473264       0.68387922      -1.09055266      -0.16764655      -0.14464598      -0.21792494
C        9.25373556      11.04641279      15.39705525       0.30632989      -0.69759234       0.68602573       0.38493367       0.42985792      -0.98921213
H        8.69840530      11.16396084      16.32525237       0.28567488       0.19774613       0.54388257       0.07326715      -0.06706403       0.12938583
H        8.44340865      10.95615371      14.67429519       0.40450978      -0.39435081      -0.66702760      -0.22431898       0.30849313       0.03868533
H        9.92629142      11.87013804      15.18226294       0.09142831       0.32208391       0.02574556       0.06236873       0.14035300      -0.01034781
H        9.36425130       8.99320268      15.44352459       1.75345056       0.88753810       0.53149731      -0.06510484      -0.16422593      -0.10915567
H       10.81411017       9.67040674      14.76941475      -0.52609234       0.14482816       0.07062051       0.19937109       0.02369649       0.16997234
N        4.04870819      17.50001789      23.72543166      -0.88339135       0.58587097      -1.65103571      -0.52306842      -0.34957879       0.24544093
C        2.95671842      18.16401930      22.81815308       3.06679541       0.05280650       0.75957811       0.19374089      -0.44580907      -0.50426433
H        3.10176667      17.69985010      21.86126653       0.28743773       0.06317505      -0.82068503      -0.08156937       0.25840798       0.06755158
H        3.24453648      19.21705467      22.85143859      -0.60141327       0.19150783      -0.21933763       0.04396463      -0.02097015      -0.19319512
H        2.01574725      17.86834856      23.14252281      -1.84481611      -0.19784933       1.07783628       0.00976415      -0.08971044      -0.12474947
C        3.90316127      16.04314251      23.51979687       0.29844924       0.14825213       0.24539456       0.54529310      -0.78435660       0.48427768
H        4.55736212      15.47778173      24.16921325       0.37553786      -0.10954130       0.28342292       0.07826918      -0.01680577       0.08441995
H        4.17477430      15.91107175      22.48166408       0.08203250      -0.58259181      -0.40257788       0.15936099       0.29049774      -0.05791096
H        2.88355390      15.71856191      23.67246427      -0.48956647       0.09041235       0.12278667       0.12532190       0.15167466      -0.04775633
H        3.99143779      17.89352527      24.67553226      -0.07147198      -0.30863386       0.30538626       0.02524124       0.23858477      -0.18201404
H        4.96279191      17.81312794      23.31023473      -0.30045672       0.04022424       0.48506764       0.03659076      -0.12128016       0.16841946
N        3.05379799      10.94124244      23.41581438       0.66426470       0.09828649      -0.72824223      -0.02537071      -0.58871123      -0.45464056
C        3.21831327       9.61787921      22.76906175       0.81388735      -1.45980883       1.77333816       0.22926182       0.44436852       0.63292832
H        3.34272103       9.63672685      21.71323498      -0.17444902       0.49166417      -1.11581443      -0.24867251       0.11142448      -0.08602788
H        2.46028944       8.87767475      23.08192837      -0.26660927       0.57816788      -0.11592512       0.16135620      -0.06708160       0.30078511
H        4.15073711       9.21625580      23.20134413      -0.01230386       0.02951658      -0.30070853       0.36080244      -0.10517874      -0.07847508
C        1.75919906      11.59161776      23.20874299      -0.43881334       1.02880385      -0.71360272      -0.50943309       0.56280925       0.04194828
H        1.02652305      10.76824070      23.32138438      -0.03605083       0.73926936       0.24394616       0.07445952       0.02095574       0.09316423
H        1.66916975      12.03722960      22.15690188       0.32371983      -0.67466839       1.23482574       0.03158514       0.07514986      -0.01718588
H        1.74474696      12.43870472      23.97729432      -0.53492331      -1.08058558      -0.87243630      -0.03409852      -0.11363742      -0.14074227
H        3.86260857      11.52086955      23.09662108      -0.22653407       0.21396214       0.10765877       0.10465779       0.17285424       0.31466391
H        3.18161516      10.84886965      24.42200292       0.27810650      -0.23434552       0.48402765      -0.22725619      -0.11966371       0.05395221
N        9.17171354      16.20068973      15.39788564       0.12130874       0.98320355      -1.39279801       0.67634993       0.22019923      -0.33625308
C       10.21820829      17.24119007      15.62416184       0.42604055       0.21557320       1.56944510      -0.46715923      -0.34027943      -0.17063043
H        9.81666607      17.81522200      16.48563333       0.12935224       0.33171240      -0.51243703      -0.03007799      -0.01588267       0.03049304
H       10.47203382      17.88035979      14.76471822      -0.29243264      -0.24296407       0.06684282      -0.05624808      -0.18499329       0.11290826
H       11.14496234      16.78895232      16.07289029      -0.56066260      -0.04019673      -0.75968279       0.11847520      -0.22918014      -0.01108361
C        9.13373751      15.30887591      16.53862028      -2.22593985      -0.75124247       0.32780403       0.78772206       0.45646702       0.55866171
H       10.09356641      14.92371035      16.69474514       1.79282864      -0.66841418       0.16506563      -0.22093935      -0.06622837      -0.07475929
H        8.44624864      14.42726661      16.37382537       0.36977933       0.90895685       0.15910044      -0.01715054      -0.00308278      -0.17283217
H        8.86483713      15.87690390      17.42453787      -0.36071007       0.10688920       0.25185317       0.05560851      -0.25814224       0.12077503
H        9.45402946      15.61057761      14.57989150       0.01141648       0.00809081      -0.33416506       0.07938601       0.17215366      -0.26031856
H        8.25046113      16.68501534      15.09834488       0.68367967      -0.71216711       0.45570648      -0.16676799      -0.08448239      -0.19939665
Pb      -0.61531705      14.01119042      19.68445197       0.01168357      -0.11241554      -0.08334882      -4.46139650      -0.63710534       0.45244084
Pb       6.27672014      13.66901191      19.73401247      -0.13502623      -0.24535586      -0.03631798      -1.25449552       2.10579375       0.39285781
Pb      -0.08163179      13.88940692      13.24169549      -0.25273692       0.13065582       0.25568027       2.30079708      -2.46175917      -5.26793900
Pb       6.33565750      13.74956084      13.24966249      -0.09278959       0.14278242      -0.04509369      -1.13179740      -2.26939525      -2.30293947
I        3.19746599      13.91348290      19.52532794      -0.13599534      -0.02139959       0.11251901       0.69376861       1.57249386      -2.15944005
I       10.42557427      13.32067656      19.63916236      -0.22333683       0.00711380      -0.01195022       0.03807692      -1.53894609      -2.51999637
I        7.20603675      10.12093551      19.85229917       0.18718178       0.47570992       0.01001880      -2.41925113       0.19085907      -0.48371787
I        6.42929564      16.60316213      20.00831123       0.02177248       0.40644954      -0.01543692      -1.31639562      -0.39990078      -0.71687517
I        9.98813611      13.89810041      12.89145474      -0.03116897      -0.02820972      -0.16563200      -2.68623789       1.06022937      -2.49997804
I        2.77649689      13.83452374      26.69661230       0.26964247      -0.04020318       0.14868474      -0.48937537       0.68176991       0.12357344
I        6.37380246      17.03995079      26.68972702       0.24831725       0.11626252      -0.24441680       0.53369255       2.28021161       0.70668682
I        6.21365529      10.16892612      12.95222765       0.10211708       0.03731371      -0.01584729      -0.01328746      -1.81953855      -3.76520691
I       13.52054432      14.19089459      23.08624409       0.06147015      -0.05038877      -0.02771835      -2.18361275      -2.90688357       0.86367022
I       -0.24295505      14.06120404      16.58431250      -0.01045287      -0.13199347       0.28161091       0.05529070       1.88894155      -0.25356934
I        5.68198731      13.96276489      16.43467890       0.10630400      -0.08034137      -0.08035233      -1.34661516       3.61561617      -0.99398718
I        6.09927506      13.26844474      23.07330295      -0.10145426      -0.21773574      -0.14202076      -2.27450067      -2.30101624      -2.47322129
Cs      16.90265009      17.30869394       2.99625007       0.01730937       0.00809532       0.02701882      -2.43831216       0.31300550      -2.11052075
N        9.98507752      22.89746147       9.93968425      -0.05206696       1.19307813       0.05516612       0.27321285      -0.41828610      -0.52016934
C        8.93185791      23.94141082      10.02892170      -2.44808083      -1.74873603       1.07456814       0.20395875      -0.52982299       0.70974697
H        8.69860946      24.42740689       9.08886206       0.19433706      -0.06564164      -0.39099656      -0.11328099       0.39813218      -0.12531224
H        9.16469489      24.62537028      10.77199785       1.02292424       1.66189958       1.36598257      -0.02808016      -0.02865698      -0.05520368
H        8.00272682      23.45722926      10.47818558       0.77524506       0.35149794      -0.90957655      -0.15498660       0.09990164      -0.02021662
C       11.22899084      23.58899417       9.44777203      -0.77643452       0.32440153      -0.30168707       0.08078848      -0.17378143       0.24240331
H       12.00560293      22.88222932       9.26973600       0.71527750      -0.76037936      -0.23738279      -0.04767133       0.08550872      -0.14738302
H       11.59080189      24.36303158      10.12219932      -0.20167472      -0.01994979       0.47761300      -0.05758259      -0.06201353      -0.00878329
H       10.90860907      24.09558750       8.52331440       0.32974996      -0.13468137       0.01375973       0.16840736      -0.20399036      -0.04013802
H        9.59360612      22.33620357       9.18226953       0.37959340      -1.12807555      -0.22071432       0.17182238       0.06218895       0.10392324
H       10.04487103      22.34463626      10.84185069       0.14801335       0.44069539      -0.78309872      -0.00033505      -0.03166305      -0.19334332
N       10.11167702      18.71788784       9.49603898       1.27059125       0.84469044      -0.54978948       0.25198952      -1.64028693       0.84440366
C       10.10584885      17.58787635       8.51175422      -2.13602308      -0.28187060       0.95302025      -0.23227656      -0.75912489      -0.45497556
H        9.11637861      17.07301486       8.60779324       0.41034572       0.42617402      -0.12404211       0.25421930      -0.42027397      -0.17975671
H       10.81666475      16.81020808       8.70042308       1.03174012      -0.21911324       0.51956457       0.02495405      -0.10548500       0.03408473
H       10.18896740      17.94971699       7.52351886       0.29247590       0.63858547      -1.31260389       0.02342740       0.07224832       0.45537082
C        9.64164795      18.24367179      10.82309932       2.06408653       0.75063728       0.86467899      -1.00249433      -0.15976133      -0.29402387
H        9.68439085      19.11995451      11.53113376      -0.14580821      -0.82943233      -0.41699240      -0.07792824       0.21963361       0.33261125
H       10.33218470      17.41792795      11.20070973      -0.82360865       0.87354765      -0.52599962      -0.06360868      -0.11290711       0.06591767
H        8.65288549      17.91520221      10.66089660      -1.41120282      -0.71999587       0.24722019      -0.12902887       0.39570171      -0.29588748
H        9.53630427      19.59768002       9.14833709       0.56698218      -1.51688026       0.50227810       0.15471352      -0.21902848      -0.31031555
H       11.13334252      19.08820619       9.59057504      -0.87389447      -0.30406216      -0.04904476       0.14549817      -0.04570454       0.00973579
N       15.85232142      24.45025387       3.00863604      -0.60364219      -2.34874016      -0.30272615       0.10933304       0.79518564      -0.14968550
C       16.91422559      25.41511093       2.92716903       2.59820633       0.72845046       0.73250909       0.37825191      -0.19541827      -0.55395971
H       17.08692378      25.90839738       3.93049415      -0.44450680      -0.32181321      -0.79571759      -0.05593082      -0.11311183      -0.11296907
H       16.72049505      26.16978860       2.15745026      -0.07906489      -0.00201226       0.02794532       0.09379319      -0.19330887      -0.09043733
H       17.92514673      24.89919994       2.70170644      -1.51514002       0.45362731       0.02413288      -0.01974249      -0.14429831      -0.12023778
C       16.28164982      23.12261285       3.61662825      -0.24856400       0.47344930      -0.19728863       0.00217876       0.46967398       1.64779412
H       15.38511530      22.71949249       4.03980870      -0.39872542      -0.43622979       0.75149227       0.30255540      -0.28651397       0.34130389
H       17.11841607      23.21488402       4.29328332       0.00441757       0.66185701       0.69597589       0.15466965      -0.18539062      -0.12227935
H       16.64218409      22.38534571       2.92200351       0.07312239      -0.03436285      -1.19441131      -0.03148205       0.02081804       0.09450562
H       15.45672347      24.19052940       2.04594742       0.19953545       0.41049562       0.45845281      -0.02391720      -0.00380924      -0.26661348
H       15.01299584      24.76261280       3.54948515       0.35827759       0.41306576      -0.19504026      -0.10890162      -0.09099579       0.07059980
Pb       6.81521904      20.23037229       6.85635802      -0.00269698       0.12881992       0.03627734      -3.94891908      -2.04102968      -1.14946061
Pb      13.58194027      20.21576974       6.59422955       0.07982129       0.08640609      -0.04899749      -2.18938405       1.03144542      -0.89106311
Pb       7.31548598      20.31149097      -0.11649792      -0.14968059      -0.04484087       0.24857351      -0.30213945      -5.63459355       4.28804628
Pb      13.57738573      20.20932305      -0.05831188      -0.04637990      -0.17164850       0.06813230       1.29022472       0.45677083       3.13210223
I       10.10681166      20.84247015       6.45962535      -0.01912680       0.02024587      -0.03197085       2.64111867       0.29031176       1.01123219
I       16.69546474      19.78641117       6.34739543      -0.04698321       0.04427473       0.16360163       1.07433439      -1.25976926       1.87323051
I       13.84594286      16.85138565       6.31158443      -0.09580001       0.05279967       0.01727251       0.81650289       4.93403864      -0.68347884
I       14.15190958      23.36150532       6.64491280      -0.16781902      -0.06718969      -0.02380470      -0.88202276      -1.31134971      -2.17574677
I       16.62969912      19.80185367      -0.40292032       0.14910564      -0.03916290      -0.05447448      -2.46023033      -0.11765284      -0.63021942
I       10.00523258      21.00795275      13.77319704       0.11891298      -0.05212255      -0.20841160       2.51374648      -0.43589016      -0.77652623
I       13.96954016      23.23660567      12.13860316       0.01730693       0.77950559      -0.23829170       0.08259008      -1.27007676       0.22003253
I       12.78949596      17.04225393       0.09103799       0.29058437      -0.14260365      -0.16864379       0.76263251      -1.80534985      -2.17117218
I       20.50409097      20.16812550      10.05952980      -0.02024202      -0.18403356      -0.00227420       1.52271371      -0.06607905       1.50910972
I        7.16707009      20.19867056       2.99415141      -0.14409777       0.09070206      -0.04455413      -2.87043922      -1.75812141      -2.07953879
I       13.90005365      19.79898507       3.16894318      -0.02814667       0.08310266       0.08401218      -2.85216205      -0.19006651      -1.12842971
I       13.38979725      20.00654869       9.97921516      -0.01028551      -0.08838970      -0.15675040       3.63630458      -1.97452496      -1.68054475
N       16.20467573      17.19695508      15.88189589       0.18661286      -0.34476075      -3.35642717      -0.51884856       0.47210794       0.09427226
C       16.04474303      17.81488841      17.20644879      -1.88048344      -0.98990659      -0.69805631      -0.43084795       0.15871258       0.49703160
H       16.86047881      18.42189160      17.39612280       1.90420726       1.10529767       0.78775565      -0.26585669       0.03202711       0.03737520
H       15.89568685      16.97362431      17.85053976       0.36451739      -0.38640027       1.00701117       0.02292482       0.02289124      -0.04678938
H       15.13150377      18.38844059      17.31034250      -0.37909167       0.41959291      -0.39395665      -0.01473876       0.12262464       0.19543446
C       16.67442067      15.75185314      15.94200953      -0.78074021       0.56186939      -1.28197904       0.60086916       0.63044881       0.19553469
H       17.69404592      15.82637390      16.22446061       1.09741613      -0.38948198       0.93945258       0.25825988      -0.33655856      -0.14098555
H       16.68415932      15.23850454      14.93765887      -0.33194962       0.72346592       0.64924695       0.07937616       0.04442457       0.06171643
H       15.98884611      15.24240421      16.61411752       0.22588676      -0.22292835       0.27925110       0.08240045      -0.40254657      -0.05265695
H       16.87044646      17.73847051      15.22053958      -0.69907398      -0.46824053       1.02200436       0.16305161      -0.21510103       0.07124832
H       15.34554361      17.16626899      15.24992320       0.17083868       0.35784528       0.92641544      -0.02397716      -0.09650957      -0.28371805
N        9.57822537      24.09069633      22.54958152      -0.49129240       1.00467555       0.38348687      -0.41174095       0.73685766       0.14838502
C        8.60849844      24.92196051      23.39459233      -0.35243750      -0.83914597      -1.59840210      -1.23461689      -0.04451271      -0.01233833
H        9.17626257      25.69864519      23.84068472       0.59980151       0.91786660       0.44929102      -0.17182373       0.07491228       0.03856603
H        8.13737517      24.30093523      24.16191047       0.11612688      -0.23052199      -0.06446339      -0.04941266       0.00318777       0.04291065
H        7.84726086      25.31953103      22.67935698       0.41612755      -0.15954396       0.59202467       0.02121948      -0.01978563      -0.14910667
C       10.72248012      23.53619299      23.29439515       0.15663015       0.82236762       0.69155679      -0.33800972       0.07294269      -0.72767051
H       11.11199835      24.41490304      23.82248325       0.35593073      -0.24625522       0.17436811       0.00921542       0.15131662      -0.24355398
H       11.47794834      23.15213154      22.61856439       0.12027411      -0.20522717      -0.23015239      -0.10792578       0.05931985       0.00720819