640
Lattice="26.255801775096064 0.14283970304086727 0.06286537100484298 0.11654926985354067 26.165833912358792 0.0004276742499226237 0.046470243915827554 0.020633035291681343 26.284874284246634" Properties=species:S:1:pos:R:3:forces:R:3:momenta:R:3 energy=-2584.279052734375 stress="0.0017633702373132107 0.0004456787428352982 0.00037380016874521965 0.0004456787428352982 0.0015196326421573758 -0.0004377042059786617 0.00037380016874521965 -0.0004377042059786617 0.001476607169024646" pbc="T T T"
Cs       9.90263802      10.49308951       3.18945642       0.01554677       0.02651250      -0.05260532      -1.11997549      -0.52915392       2.17968267
N        2.97159192      16.57168533       9.18532300       0.02043750      -1.08508940       1.94431021       1.04891757       1.04753543      -0.31673058
C        3.87718856      15.87382024      10.13488296      -0.21613419      -2.82122753       1.59351009      -0.85121526       0.49685493      -0.17306119
H        4.58797258      16.50848395      10.65038259       0.21021399       0.76985268      -0.33451890      -0.05787080       0.01443252      -0.06154950
H        4.41466629      14.99426442       9.70885402      -0.19395510       0.74016472      -0.34309483      -0.03207172      -0.14013224      -0.02274136
H        3.29281382      15.37172821      11.01122655       0.33474684       0.95136200      -1.46687020       0.15972132       0.14507680      -0.06395654
C        2.18376869      17.48175863      10.01320732      -2.21069878       0.85419815       0.56841205       0.22341978       0.86874492       0.62520227
H        2.83216487      18.30044537      10.36416172      -0.11258739       0.08567143      -0.32548493       0.03410898       0.20570173       0.06759666
H        1.85089639      16.95873919      10.96257712       0.05539825       0.23691252      -1.08576063      -0.03842343      -0.10216381       0.29558950
H        1.26891542      17.85340821       9.41235186       1.34496591      -0.33191308       0.93284714      -0.03929626       0.19497163       0.20681622
H        2.35673120      15.89745429       8.69068820       0.09375590       0.12495595      -0.25522838       0.06530373      -0.28189062       0.15884065
H        3.48560816      17.13752565       8.53475193       0.66717362       0.56782755      -1.24760610       0.15540000      -0.00162352      -0.11820382
Cs       3.48725386      10.13179447       9.61393772       0.07264237      -0.01529616       0.09455950       0.86666271       2.24442718       3.09814073
Cs      10.24254635      16.66277694       3.76291274      -0.05978657      -0.11403792      -0.04571152      -2.09845107      -1.51173720       4.19783226
Pb       0.19036629      12.77818631       7.11749010      -0.18877948       0.16187862      -0.21987516       1.86432053      -1.48828833      -0.26085235
Pb       6.55677456      13.08702246       6.47856413       0.43660439       0.08141679       0.11485037      -1.27456722       0.12583652      -0.26806018
Pb      -0.15922631      13.11035119       0.23289288       0.36402344      -0.28606540       0.01564880      -0.76635068      -2.61831720       3.13863307
Pb       6.32808300      13.19738127      -0.47906703       0.13380004      -0.15042618       0.23577342      -0.04298992      -1.32068943       0.15135238
I        3.44174042      13.14831739       6.93932130      -0.26579853       0.05698997       0.04785710       0.04253520       1.07336131       1.21519515
I        9.85694293      12.57358158       6.59058216      -0.05332382      -0.04303858      -0.07441690      -0.66373220      -0.46824273       1.18259054
I        6.27412543       9.77722221       6.67596068      -0.02008636       0.21205732       0.02781629      -2.42815553       1.64076529      -0.79354062
I        7.82303968      16.23157066       7.01375379      -0.15004362       0.07690862      -0.04301176      -0.36033858       1.10702387      -1.13472858
I        9.74740553      13.22727804      -0.53637453      -0.00507289      -0.08605646       0.09479343       1.44577493      -0.44730443       2.12097546
I        3.43781834      12.66603032      13.87483081      -0.05900213       0.23050939      -0.06705205       0.19213273      -2.12465839      -0.22317326
I        6.13102070      16.65714225      13.78153656       0.03652587      -0.10895467      -0.10090031      -2.95810210      -1.66699848      -2.37143837
I        6.07580158      10.16424155       0.59283154       0.07529803      -0.06048927      -0.09938385      -2.04151278       0.62191590       2.00880180
I       12.46428667      13.33903978       9.85979948      -0.13817399       0.11839070       0.36972886      -2.31381504       1.71028581      -3.30116360
I        0.00282168      13.83097572       3.72210642       0.03285909      -0.15428403      -0.09885368       2.68366975      -0.51790421       4.48272502
I        7.02340242      13.86668856       3.40518491       0.17037133      -0.06312667       0.10845840      -0.97694576       1.69676628       1.73024083
I        6.60449995      12.72061782       9.99780070      -0.05557776      -0.02791674       0.00572683      -2.06677609      -0.14776655      -1.92076063
Cs       9.18789661      10.41850493      16.42220766       0.08845300      -0.13518580      -0.08855377      -1.54805467      -0.38173142      -0.72207863
Cs       3.04105085      16.02160469      22.64204915       0.01151115       0.02554200       0.08296409      -0.98871291      -0.97949856       1.91612048
Cs       3.92747248       9.56430743      22.97411140      -0.13080656      -0.00143292       0.06774953      -2.66814660      -0.59042248      -0.69009028
N        9.39874376      16.40748513      15.47279681      -1.03883788      -0.34972953      -1.05685085       0.71563900       0.41183862       0.21990715
C        9.08939935      17.02543877      16.75262882       0.12022543      -0.98678605       2.14704672       0.09514499      -0.13147798      -0.24204125
H        8.81030438      16.22285759      17.52466729       0.07095453       0.97468124      -1.07294005      -0.02617870       0.03211115      -0.26402920
H        8.35636680      17.80339849      16.66779899      -0.89851145       0.16683232      -0.27127944      -0.09005217       0.16751776      -0.14252661
H        9.94648834      17.53651642      17.15668095       0.85513738       0.16246593       0.05293146       0.01070182       0.09169221       0.02284405
C       10.51174087      15.40563643      15.47318093      -0.71902718       1.28184696       0.67256638       0.03200913      -0.50486566       0.34455505
H       11.41240351      15.96598503      15.76197159       0.03504725      -0.43956096      -0.06868211      -0.01393810       0.03669386      -0.15828140
H       10.45333154      15.04641291      14.48013469       0.81466184      -0.68934109      -1.21153955       0.25160723      -0.17351463       0.06705472
H       10.20030192      14.61513909      16.14993103       0.27805602      -0.19822551       0.44522645      -0.15848985       0.24697565      -0.16358874
H        9.54540895      17.12992813      14.73460150       0.09231959      -0.08826583       0.30719111      -0.11474687      -0.08672356       0.01668171
H        8.53654949      15.89122889      15.14512324       0.27455026       0.44697446       0.08986680      -0.00094569      -0.20550059      -0.20191974
Pb       0.35448609      12.90481881      19.78733627      -0.10939693       0.13681475       0.04584621       1.72554712      -3.82807932       1.12086208
Pb       6.67534567      13.33171563      19.74773142       0.04211739       0.06520807       0.02352191       2.80237063       0.27753926       3.97845912
Pb       0.32444594      12.77191544      13.40458525       0.09101627       0.04261420      -0.05697624      -3.01948708      -0.90714597       2.21204878
Pb       6.63942987      13.53325427      13.36372986      -0.24953941      -0.02699925      -0.20411448       3.00932253      -1.76419169       0.05443890
I        3.53686486      13.33495231      19.71378213      -0.20388726       0.03274250      -0.02879079       0.04833626       1.19936987       0.02951331
I       10.10563325      12.85220191      19.27734668      -0.16843689       0.01457564       0.04975651      -0.91103424      -1.81242951      -3.23414818
I        6.45048074      10.02226253      19.75585393      -0.07964246      -0.02737412      -0.21838514      -1.57211423       0.57452563      -0.00215219
I        6.32431211      16.44961403      20.27073777       0.23382670      -0.05501169       0.03603840      -1.54844536      -3.76650045       2.12521009
I        9.59515883      12.63557649      12.92800887       0.15423088      -0.05316213       0.12052882       4.60080334      -0.41067055      -0.35413090
I        3.27213735      13.76987324      25.82860917       0.06580710      -0.04726131      -0.10274140       0.35397217       1.79093656       1.37288183
I        6.62124073      16.34618169      25.84417936       0.06917172      -0.15865809      -0.19632669       0.51664036       3.21464676       0.16575115
I        6.11337840       9.51082013      13.34767228      -0.02667196       0.05557056       0.10845486      -0.84731357      -0.41439157      -4.94641580
I       13.21276669      12.63892620      22.90066602       0.00382571       0.13815651      -0.03568680       0.00510482      -1.81521199      -0.15939531
I       -0.26849844      13.11658452      16.38236594       0.08040773      -0.02044603       0.23882537      -0.75872775      -0.98656807       0.29349615
I        6.49817012      13.54226291      16.55053754       0.05975151      -0.14175662       0.05011452       5.00560216       1.13539874       2.10773495
I        6.81207327      12.16781837      22.98529478      -0.27721516       0.23118063      -0.09276432       1.51927153      -1.49656463      -0.11803836
N       15.93273536      17.09963450       3.15127528       0.09514241       0.32037489      -0.49801815       0.40128492      -0.22094370       0.34618975
C       17.15853904      16.43093144       3.62578894       0.14629626      -0.28210490       0.29576230       0.62479951      -0.57479745       0.31280164
H       17.96227393      17.07113639       3.29114990       0.62397483      -0.14670585      -0.26539661       0.02283295       0.21985355      -0.03934987
H       17.15845795      15.42477980       3.20911839       0.31536976      -0.04650950      -0.25032281      -0.10785654       0.24174536       0.36488453
H       17.24931378      16.37013205       4.71593758      -0.48267292       0.06099235       0.05900896       0.17135947      -0.08097547      -0.20841131
C       14.68741704      16.28337681       3.10586135       0.79538303      -1.15589344      -1.00605164      -0.55033338       0.42540278       0.11394255
H       14.62438973      16.10749457       1.99277931      -0.54972814      -0.60748478       1.01307220      -0.14619066       0.14962342      -0.27751220
H       13.80315343      16.84235385       3.41037196       0.05432165       0.10944680       0.34398281       0.16780613       0.00365622       0.23294677
H       14.89359432      15.33472864       3.68594222      -0.45654160       0.95406839      -0.54538877      -0.24313507       0.02529066       0.00832784
H       16.10188259      17.39423612       2.15944553       0.09213739       0.31099723       0.58645188       0.21991789       0.06089194       0.24608571
H       15.83178257      17.96314928       3.68267219      -0.39277857       0.50173641       0.24658387       0.22756264       0.03196928       0.18055774
N        9.58313780      23.24310192      10.15333440      -0.33527426       1.37020930       0.38328683      -0.35573768       0.35878373       0.53984668
C       10.36774250      22.04273241      10.50668832       2.06458555      -0.33947009       0.42412967       0.56557808       0.06570425       1.06604464
H        9.93579499      21.07107588      10.10150274       0.33434815       1.26134014       0.06744338      -0.12996797      -0.42267561       0.06117631
H       10.36132968      21.95111227      11.64360772       0.08806591       0.17029668      -1.10687327       0.09450011      -0.35768662       0.03017387
H       11.48827909      22.22912852      10.17290665      -2.05918924      -0.55225153       0.36668283       0.16041819      -0.03684573      -0.20443998
C        9.14116667      23.34846806       8.68096938       0.85228579       0.13611508       0.82872288      -0.57466959       0.57782077      -0.41235787
H        8.77944704      22.34342797       8.47863216      -0.12409623      -0.13305440      -0.48264672      -0.16933060       0.02326075      -0.00463882
H       10.09392699      23.57895959       8.10969650      -1.27693684      -0.07142931       0.34133976      -0.16645114      -0.07839204       0.34492919
H        8.30417413      24.08971325       8.62674769       0.86543222      -0.32439705      -0.15301372       0.12776277      -0.06821836      -0.05106288
H       10.12531269      24.12957932      10.41588987      -0.48753117      -1.06258037      -0.34875738      -0.01861178      -0.48455118      -0.14280790
H        8.73740080      23.28067045      10.79204916       0.13439351      -0.07308494      -0.52524793      -0.25060338      -0.12726876       0.05415852
Cs      10.59370317      17.24180719       9.53442371      -0.07510296       0.02637151      -0.07479795       3.65368537       0.89227291       1.37046155
Cs      16.74428871      23.35923718       3.39047764      -0.21659873      -0.06675943      -0.20658800      -0.74710683      -0.74238488       0.85184857
Pb       6.93187898      19.50790801       6.35359018      -0.16679396       0.04359914       0.32458128       0.83969400       0.86413436       2.75813151
Pb      13.51709806      19.90012143       6.36979650       0.00539880       0.06732131       0.01528065       0.49323453      -2.60161523       4.21212724
Pb       6.42918334      19.17502777       0.15237158      -0.08822384       0.40203830       0.00538283       3.38133818       3.19583860      -4.51691258
Pb      13.24789790      19.74434842       0.04798131       0.05771299       0.13879742      -0.31506647      -3.18331997       2.25004066      -2.25091957
I       10.16196777      19.78712954       6.19704312      -0.03369486       0.12909771      -0.10212830      -0.33352303       3.52648699      -4.49155976
I       16.70539233      19.46108641       6.47888732      -0.31986811       0.03034410       0.00577241       3.37726592       0.20116342      -0.45486422
I       13.40646612      16.79003216       6.88628357      -0.14467963      -0.10917065      -0.02068155      -2.95884844      -0.53926584      -0.83687802
I       13.98181748      23.31631202       6.47325946       0.00697054      -0.00433824      -0.09182153      -0.44793627      -0.47942827       1.45646063
I       16.52599840      19.54246273       0.19965512      -0.09288109      -0.09694008      -0.03413299       2.20187374       0.69585745       0.98419672
I        9.73338774      19.93919141      13.16759876       0.13506577      -0.23381489       0.35990388       0.36348152       1.13788557       2.18237878
I       14.07349002      23.21575909      13.33642204      -0.16000169      -0.42135791      -0.10561929      -4.11503743       0.18614323       0.76730395
I       13.37774613      16.67555967      -0.63837704      -0.00372748      -0.00158570       0.03711443      -3.07983413       0.00518028       0.39799260
I       19.65022364      19.79092022       9.73097593      -0.15835866      -0.01874736       0.10553466       0.31773055      -0.87630724       1.62219236
I        6.57189334      18.40441847       3.55453058       0.00977614      -0.13320529      -0.19570631       1.65003213       0.18852949       0.15754366
I       13.51725488      19.69756283       3.13226215      -0.10148384       0.19392093       0.15597778       1.06026321       1.75621651      -1.21972544
I       13.51426714      20.04031986       9.60813798       0.06416498       0.05557674       0.05035916       2.88986405       1.01988261       4.58077170
Cs      16.10168499      16.74690665      15.89145069       0.06756030      -0.08218560      -0.01283052       2.68743162      -0.99472305      -2.59967938
N        9.04885485      22.74107517      23.60085668       0.92923102      -1.94086937       0.91974697       1.38309767       0.05828854      -0.52012091
C        9.62890110      22.99667538      24.94617860       3.73413976      -1.55382809      -1.49486393       0.49913268      -0.77039606       0.08216392
H       10.55128908      23.61192771      24.80926456      -0.67774885      -0.24444319       0.23181326      -0.23952239      -0.28115524      -0.02239527
H        9.91364831      22.01744972      25.44880957      -0.19174745       0.72693348      -0.85012008       0.17243360       0.23224735      -0.05936290
H        8.92412127      23.39263505      25.55082846      -2.33585857       1.78124412       1.86075753       0.01852826      -0.16690643      -0.06643401
C        9.97586539      21.97092908      22.66063057       0.54715071      -0.31504321       0.39760249      -0.22528998       0.87203731       0.11009747
H        9.26693253      21.75131935      21.85976801       0.63305124       0.00567242      -0.76439862       0.25836464       0.13427964      -0.09479749
H       10.33708135      20.97046672      23.05784619      -0.51434805       1.22589244       0.10645777      -0.21796819      -0.00608524       0.07422837
H       10.90192213      22.59744274      22.41137900      -1.41997799      -0.59169848       0.12553428      -0.01548250       0.21561402       0.11009106
H        8.75352745      23.54019772      23.05088172      -0.41848070       0.81009097       0.25100716       0.02392099      -0.29445096       0.03803085
H        8.22322520      22.14249705      23.85729234      -0.22043646       0.16550277      -0.84834181       0.13260364       0.11072631      -0.08196504
N        9.84828289      17.16627127      23.39864690       1.60881006       0.40628389      -1.28504576       0.68457864      -0.11360567      -0.24497775
C        9.60655573      18.42789459      22.59845291       1.32507630       0.17574917      -0.24625161      -1.58447141      -1.03089453       0.55131360
H        8.90207258      19.08925477      23.17919376       0.97544710      -0.31534344      -0.49890647       0.04918046       0.01568480       0.02535429
H        9.23199989      18.29816016      21.55618856      -0.29741234      -0.68994715       0.73977882      -0.07512123       0.29346428       0.18384594
H       10.66855603      18.68503553      22.42317533      -0.52959721       1.13954265       0.30066389       0.18819451       0.15861943      -0.00737487
C       10.90459613      16.16054206      22.89078211       0.45338547       0.65765710       0.00086552      -0.20070116      -0.77768933      -1.30670578
H       10.83387672      15.41539055      23.69918246       0.79912649      -0.11555793      -0.37073365       0.18662991      -0.12986885      -0.12111656
H       11.88706365      16.71475512      22.75758944      -0.91058704      -0.58843240       0.68133973       0.00035745      -0.09341761      -0.03305679
H       10.74678756      15.65839231      21.90967584      -0.78698882       0.56146323       0.44331715      -0.16141689       0.02677921      -0.23532511
H        8.98091225      16.74080818      23.33441026      -2.39857466      -1.63316584       0.46628478      -0.04620483       0.05063000      -0.02421779
H       10.10071441      17.34647001      24.39540072      -0.37910427       0.28355277      -0.28343168      -0.45097912       0.15867547      -0.07354863
N       16.81745375      22.61502801      17.36700709       0.28117008       1.66715260      -0.46318804       0.16804731      -0.12649259       1.01395178
C       16.99541339      21.72324976      16.21284618      -1.02085230      -0.47466352      -0.68369207      -0.60187091       0.37208088      -0.00408194
H       16.24427810      22.00986771      15.43538193       0.24740807      -0.28762119       0.56770792       0.10170494      -0.14473513      -0.20593128
H       16.91238051      20.63662729      16.46448647       0.01896147       0.73043883       0.08384860       0.13061426      -0.20080333       0.01568232
H       17.95421174      21.93891478      15.78534295       0.83458947       0.04366357      -0.33719970       0.15993417       0.15277497       0.05986368
C       16.37378966      24.03393150      16.97578361       0.26070947       0.00879061       1.16583053      -0.45283081       0.99110848      -0.10922003
H       17.02164539      24.41158103      16.19766477       0.43428146      -0.04876328      -0.40461936      -0.10267367       0.03106461      -0.01505402
H       16.49072980      24.71951104      17.86125339      -0.14490915      -0.68010239      -0.53307176      -0.12140263       0.43388336       0.02722419
H       15.34340982      24.05245398      16.62812798      -0.26894236      -0.26306676      -0.05875469      -0.07751399      -0.09339252      -0.35968296
H       17.74488465      22.77808758      17.88551916      -0.55383116      -0.53722282       0.04406270      -0.01292614       0.19849426      -0.01469724
H       16.11390301      22.23057711      17.99237831      -0.28619954      -0.20250392       0.67426693       0.01998511      -0.14461029       0.21306968
Pb       6.56846333      19.85505384      19.70379648      -0.07713136      -0.04306021      -0.22468061       0.74676516      -0.50266791      -2.44992187
Pb      13.47629564      19.51551654      19.35121333      -0.45861066       0.00971593       0.06226514       2.31288436       1.69217092       0.47887689
Pb       6.59730736      19.92088052      12.73300425      -0.17175679       0.13822419       0.26924481       1.48993626       0.33609208       0.56694675
Pb      13.33344084      19.78693781      12.76690081      -0.09229402       0.05719017       0.17431831       0.11280120      -4.12116966       3.37903968
I       10.38515952      20.52003247      18.61635291      -0.28546909      -0.10127773       0.19708009      -1.54293277       0.19030756      -2.37194271
I       16.49237884      19.28488706      19.52505985       0.47607164       0.03471305      -0.05438978       0.32491679       2.70003550      -1.22360199
I       13.30340534      16.36754460      19.72816044       0.05492506      -0.20293053      -0.01784882       4.14209210       3.03998313      -1.91784019
I       13.71387935      22.62358164      19.65348170       0.08258382       0.41408526       0.03799651      -0.62289461       1.19914685       0.53590604
I       16.43107127      19.40054551      12.86703074       0.02737272       0.02813360       0.05947307      -0.18166377       1.63435249       2.35295742
I        9.90417479      19.14007055      26.70856123       0.05971002       0.04788385       0.06092065      -0.17867201       1.19230725      -0.72037604
I       14.26026850      23.22320318      26.11123315      -0.13718351      -0.03393984       0.03340564      -0.53522429      -1.45467656       2.73666714
I       13.30908520      16.72504636      12.11786185      -0.12102588      -0.03571190       0.17344411      -4.77945269       0.68321344       0.97310277
I       19.09337840      20.54980778      23.19782436      -0.16082739      -0.09756632      -0.50511025      -0.77459157      -1.30340208      -0.98973418
I        6.01464757      20.14493434      16.57374161       0.27096523      -0.05767726       0.20683165      -0.81226313       1.96724584      -0.66051424
I       13.14551433      19.35221378      16.20456261       0.15663448      -0.06437531      -0.20979315      -0.71619670      -0.14383330       1.49799974
I       13.56136063      19.73827223      22.98076160       0.17498413       0.08093266      -0.06105986       0.04805667      -3.16226728      -0.32812590
N        9.80568470      21.95678165       3.05401118       1.11071773      -1.20845118       2.21202746       0.40370027      -0.46717862       0.58628474
C        8.42618303      22.32770950       2.95833475      -1.84133696      -0.79130161       0.00932245      -0.39706675       0.12706587       0.16126366
H        8.26496747      23.09726781       3.70010091      -0.51026768       0.14830605       0.57884931      -0.01119389       0.23015529       0.02349355
H        7.79838323      21.38200593       3.12094940       0.53074601       1.42374181      -0.14748048       0.18016526      -0.03279442       0.27486719
H        8.21816190      22.77995823       2.00410790      -0.22618172       0.07727572      -0.72389363       0.15408090      -0.29556694      -0.02140585
C       10.73803007      23.12286706       2.93494248      -1.56855845       0.32582277       0.50323089       0.08851754       0.92163540       0.21201353
H       10.27694022      23.79307578       2.20212137       0.33194273       0.01974599      -0.27000138      -0.11058119       0.06268514      -0.22856959
H       11.68907949      22.75419343       2.67238952       1.39251488      -0.30024815      -0.49599108      -0.02695992      -0.08038830      -0.09490495
H       10.77768896      23.67564295       3.87690044      -0.01337610      -0.12371890       0.20047837      -0.12938547      -0.29007655      -0.15732141
H       10.02450155      21.26165990       2.31497187       0.12224185      -0.28508642       0.22570969      -0.09452129       0.06522086       0.05156419
H        9.83073284      21.47347842       4.07241145       0.82146086       0.51664268      -1.98907521       0.16618394      -0.19443963      -0.08547465
N        3.58242926       3.38181913      10.56746195      -1.19674607      -0.91077995      -3.14604695      -0.25213756      -0.01480121       0.41224744
C        2.13106040       3.29727523      10.18661577      -0.37527990       0.01968087       0.22882891       0.20075251       0.66165725      -0.33360268
H        1.73659080       4.28741525       9.99181162       0.00158154       0.38513213       0.05448551      -0.05502919       0.13977668       0.24511531
H        1.51875591       2.76382888      10.90328494       0.06661519       0.15623947       0.89709705      -0.15604440      -0.25826432       0.37168001
H        1.94795770       2.68166797       9.31586355       0.63178099      -0.15037804      -0.74073539       0.08768531      -0.02761427       0.21859351
C        4.38344235       3.79398871       9.30089674       0.34522837      -0.66359103       2.20772880      -0.33169424      -0.65259536       0.45203602
H        5.39863050       3.92464862       9.70943658      -0.09422271       0.75292343      -0.41275902      -0.12516008      -0.03463773      -0.09038223
H        3.85577408       4.62763273       8.84910499       0.25597846       0.30789084      -0.06277720      -0.02208399      -0.02305063      -0.07832716
H        4.47884223       2.94226222       8.64631207      -0.49801096      -0.46510931      -0.43567201       0.32039719       0.14259042       0.09745863
H        3.82768884       2.42883607      10.83553090       0.48724781      -0.39289652       0.44689209      -0.09637534       0.14773944       0.04760665
H        3.70035597       4.01288981      11.34208698       0.30846526       0.95799541       1.06373980       0.00637167      -0.00688727       0.18234939
Cs       3.36813582      22.75369688       9.16620506       0.14638377       0.08915584       0.03794455      -2.86308764       1.46838229      -0.44468875
Cs      10.66949474       2.87831648       3.13863850      -0.21126372       0.13199137      -0.01420197      -0.49984754      -2.48505326      -2.17466495
Pb      -0.04360018       0.33830502       6.61916278       0.19850423      -0.20446554       0.00540994       5.17233714      -2.16313140      -1.64028413
Pb       6.78106604       0.10174935       6.10224705      -0.07920964       0.24156890      -0.05734004       0.85388601       1.72548994      -0.08712593
Pb      -0.40954248      -0.02746385      -0.24216247       0.06038928       0.01335653      -0.04013351       0.29028031       1.90679263       3.96284838
Pb       6.29507367       0.04167166      -0.17442446       0.03138136       0.00300514       0.05874662       1.65109859      -1.01280958       2.88085223
I        3.27128255       0.78377563       6.40079323       0.07757746      -0.17322731       0.02839046       2.66777078       4.17483142       1.18594732
I        9.96094948      26.27462980       5.65850565       0.09259417      -0.09165651       0.15057084      -1.29157075       0.77682203      -0.61398385
I        6.09067646      22.89363306       5.98848932       0.06519370       0.10152402       0.21152123      -3.41615324       1.04099750       0.64450909
I        6.98273114       3.29817440       6.34476946       0.10404421       0.00566622       0.05710847      -2.53578667      -2.88487753      -3.41495615
I        9.87940281      26.32221498       0.65714600      -0.06461597       0.01048785      -0.03571370       0.91938409      -1.37812496      -3.02593673
I        3.27558184       0.57813783      12.94913850       0.05765796       0.03071279      -0.20119598      -0.46407264      -0.82657175      -0.86974474
I        7.63402015       3.30045603      13.24715009      -0.03634885       0.05499766       0.16241584      -0.95801832       3.76297736       1.80416193
I        6.03641710      22.97704187      -0.25610771      -0.00676672       0.26228904       0.02614752      -5.37312183       1.97584602       1.73061681
I       12.78498661      -0.10662498       9.96743060      -0.12480303      -0.06545892      -0.04070408       0.55626688      -1.40835300      -0.37651775
I        0.52725799      26.31898370       3.55900546      -0.13304955       0.08621554      -0.26681096      -1.77946935      -1.99375990       1.50722044
I        6.75327946       1.00231389       3.12877013      -0.21851648      -0.19258651       0.08984844       0.13358366       1.13035166       0.28484880