320
Lattice="25.136139528236203 0.3087417627186549 0.023089120299543776 0.2671810588123303 25.336560888653228 0.06244131039848889 -0.0354660711617697 0.0684034983471204 25.51641579985468" Properties=species:S:1:pos:R:3:forces:R:3:momenta:R:3 energy=-903.3723754882814 stress="0.0008793033193796874 0.0003128738317172974 -0.00011561019346117975 0.0003128738317172974 0.0005632234388031065 -2.2308908228296787e-05 -0.00011561019346117975 -2.2308908228296787e-05 0.0005660365568473935" pbc="T T T"
Cs      10.06475645      10.01672004       2.65526408      -0.18553946      -0.08228188       0.12012318      -1.63755826       0.52067338       0.16237353
Cs       2.92782185      16.79027252       8.90137003       0.00593545      -0.22962191       0.28109379      -3.12682386       0.72797916       0.31911162
Cs       3.36310289      10.17813476       9.34169812       0.07843553       0.00625721      -0.09878192       1.49204774       1.60904198       1.36751294
Cs       9.16767929      15.99284896       2.95463580       0.01063119       0.06848623      -0.05956924       0.13507716       1.56099041       1.46412469
Pb       0.11214396      12.53592648       6.11281544       0.05817274       0.18383200      -0.07444043       1.31380443      -0.45908989      -2.02814248
Pb       6.45721808      12.80923253       6.04920741      -0.53696172       0.03946731       0.00667059       1.04589336      -1.23717385      -0.18965887
Pb       0.20444174      12.68029490      -0.37466204      -0.01542346       0.00072604       0.05043410       1.28913380      -2.42420949      -0.18602060
Pb       6.49964073      13.06220908      -0.49401036      -0.09633669      -0.56744064       0.07138629      -1.07416944       0.46139299       4.75711602
I        3.01281055      13.90296343       6.54103672       0.01419608      -0.31973416      -0.09005278      -0.42864389      -1.07733461      -4.76556231
I        9.33509820      13.03136446       5.44055655       0.50431786      -0.24153236      -0.07959466       0.04556693      -2.12857926      -2.63277117
I        5.15641295       9.61835853       5.49863740       0.19983866      -0.05566718       0.16438500      -0.83860585       0.19143029       3.95542543
I        6.92881329      15.97372645       6.53584201      -0.06225333       0.12382978       0.03050919       0.62841956       0.19306790      -1.25038767
I        9.62463784      12.65286482       0.11311640      -0.17020364       0.05777477      -0.06918493      -0.53714134       1.36384519      -0.33372884
I        3.15032158      13.82855456      11.66513271      -0.12642533      -0.11856730       0.06127915       1.32165319      -1.16184800       0.87101402
I        7.07973037      15.97612558      12.05812314      -0.07682694       0.02482092      -0.02701900       1.47247290      -1.56494570      -0.97096413
I        6.07762377       9.87649584       0.25643342      -0.02003237      -0.18255365      -0.00567291      -0.87318338      -2.86891080      -1.04542198
I       12.02684649      13.51945840       9.53385244       0.03883184      -0.20988718      -0.68171826      -0.33288975      -0.43043094       0.32530174
I        0.79349997      12.69865738       2.79445744       0.05023840      -0.05425180       0.06597217      -2.45590467      -5.00669003      -1.75614415
I        6.11391341      13.10241780       2.86252736      -0.13520345       0.18403672      -0.16383427       2.09306128       0.73957769       0.68319485
I        6.91761276      12.23197567       9.08227567      -0.00037824      -0.06345837       0.24504309      -0.36834888      -1.56758202      -1.35276182
Cs       9.54267273       9.33268154      15.81681395      -0.12862566       0.10109041      -0.13878044       2.49599955      -1.10802797       1.13117472
Cs       3.55362999      16.16038213      21.84439330       0.07520586       0.16293582       0.20385207       1.85466535      -1.25741520       1.49753874
Cs       2.96599236      10.29687149      21.56653257       0.14985414      -0.12671824      -0.17690671      -1.04307314      -1.41042910       2.57844772
Cs       9.09012941      15.79727040      15.71177794       0.11417885      -0.10178581      -0.18396431      -1.58599676       2.08420026       1.44849219
Pb      -0.03964428      12.93069719      18.69498308      -0.05602113      -0.02231837       0.07340024      -2.61680088       0.22220477      -0.80478415
Pb       6.57485044      12.87689232      18.64903382      -0.06959073      -0.12604868       0.09163095      -0.83772106      -1.32949076      -1.03058785
Pb      -0.07290249      12.96712200      12.59523635      -0.06052181      -0.18757549      -0.05422271       1.69019471       1.41462854      -3.10456729
Pb       6.06708726      13.00862878      12.36640875       0.15766309      -0.10151627      -0.02185807      -5.05807419      -2.72563665      -1.66566207
I        3.39464207      13.74074040      19.33881272      -0.06870519      -0.26731432      -0.26311887      -1.22261891      -0.90139150      -0.01071523
I        9.70083225      12.41343946      17.85697378       0.03196149       0.03997644       0.10488588       1.80423497      -1.80012686       1.64472958
I        5.77030316       9.69215177      18.16536465       0.02498002      -0.06513960       0.05912392       1.13009440      -1.29671710      -0.72856097
I        7.16721582      16.01915007      18.96125054       0.07140978      -0.06467612       0.19464679       1.28792597       0.28150371      -2.18871915
I        9.43680529      12.72806288      13.04525365      -0.02654438      -0.20449186       0.03897501      -0.56959507       1.26298406       0.47031805
I        3.07973635      12.92896676      23.93181012       0.11929849       0.30495998       0.31956106       0.22694561      -0.73797291       3.18761159
I        6.66037231      16.15282186      24.88030234       0.00267599       0.35822153      -0.04076450       1.46384319      -2.11374821       0.15076766
I        5.44494252       9.52556008      12.55780777       0.07997553       0.06901309       0.08148835       2.55788664       0.16264703       1.54950116
I       11.50982650      13.49151538      21.81966448       0.10427099       0.01939479       0.07287482      -2.21064213       2.86416449      -0.65114306
I        0.73648594      12.27326743      15.67673545      -0.05111977      -0.00411239      -0.17502492       0.25275957       3.11363559       0.80011722
I        5.70864968      12.85990091      15.56250488      -0.03402771       0.15857176      -0.14047508       2.98302805       1.20948122      -0.35301473
I        7.07106405      12.31236752      21.88817801      -0.20510464       0.19450883      -0.03507062      -0.71545472       2.12088952       0.41353097
Cs      15.34070404      15.48583929       3.32440597       0.01226299       0.18602934      -0.15997209       0.48561847      -2.74650911      -0.43052050
Cs       8.75327191      22.15396654       9.41775211       0.03711336       0.07339845       0.01827680       0.76250746       0.72451954      -1.67129485
Cs      10.03711267      16.51661877       9.40412063      -0.27483239       0.14271431       0.03114628      -3.16235637       0.52614900       1.30177027
Cs      15.36312711      21.36766542       2.64452704       0.16923356       0.03940388       0.15923714       1.86405322       0.69064652       0.57784455
Pb       6.27417237      19.10265226       6.30845112       0.08600059       0.00977041      -0.11330292      -2.36093893      -0.11849586       2.69488088
Pb      12.88193954      19.28746430       6.53065591      -0.12372550       0.24909722      -0.43541828       2.23590345       3.55506609       1.21330253
Pb       6.03897800      19.25528762      -0.32102500       0.24532488       0.14301118       0.20734472      -1.68247671       0.13885389      -2.76511037
Pb      12.77024388      19.52037829      -0.22132385      -0.23478729      -0.24460219       0.02421266       2.87789571      -4.91148834       3.56991538
I        9.52165558      19.74914638       6.52536357      -0.03207724      -0.00184491       0.12525295       1.92946757      -0.87790800       2.74824667
I       15.89921245      18.65175512       5.71740315      -0.01237473      -0.07029579      -0.03581920       0.97623306       3.35961994       2.58248329
I       11.96932465      16.33522254       6.08239179      -0.09365308       0.02895962      -0.14557426      -0.99217086      -0.91441319       0.36302396
I       13.17699104      22.34187207       5.54734428       0.09352481       0.25453234       0.21878301      -1.83330795       1.19466933      -1.04571685
I       15.76615973      18.15463914       0.15952289       0.10663057      -0.01781218       0.03172618       1.46351736       2.66284053       1.45759339
I        9.41305622      19.44388377      12.28613563       0.05608036       0.15929520      -0.09649898      -0.61151952       1.30326310      -1.01577839
I       13.85265300      22.35680005      12.37425779       0.10490567       0.40069109      -0.11820214      -1.69060739       4.12686492      -2.34730748
I       11.68845995      16.08138112      -0.05722175       0.15311356       0.06724957      -0.04322701      -0.47210319       0.80523423       0.82222123
I       18.43982626      19.87630775       9.08013368      -0.03374489      -0.07412580       0.23226288       2.97199294       3.08802519       1.59586648
I        6.67491050      19.13875692       3.04395265       0.04009970      -0.16204080      -0.01465145      -1.10423212      -0.58082444      -2.51585780
I       12.29180096      19.22626430       2.94129552      -0.06575605      -0.06404179      -0.04362040      -0.74861640      -1.40589566       0.56817491
I       13.38918234      19.13073068       9.45956698       0.00681760       0.02868243       0.28585121       0.06654245       0.45610518       1.32738551
Cs      15.16245777      16.06676145      15.86800640       0.23569936       0.27399646       0.07541686       2.59668557       2.23271400      -1.82125944
Cs      10.07530468      22.57872380      22.06568631      -0.00772009       0.17209651       0.22494097      -0.54895276      -0.03969496      -1.83452677
Cs       9.50189317      16.64725809      22.28213324      -0.01387567       0.06397428       0.00519656      -0.18473138      -1.83848968       1.31928202
Cs      15.91240227      22.72479019      15.64482353       0.08780447      -0.18759667       0.02475233      -0.33995266       0.73333652      -0.33281658
Pb       6.62247030      19.10148830      18.74471977       0.00975967       0.17980193       0.14141259       0.63638037       0.45970119       1.16761589
Pb      12.80386115      19.29179862      19.01841904      -0.22750484       0.00926253       0.00056541       0.77690595       3.35638516       0.25917102
Pb       6.11916752      19.11600150      12.46076697       0.11524520      -0.09402525      -0.03979484       0.66702619      -3.64732184      -1.85725234
Pb      12.67773572      19.58643807      12.66210218       0.01983854      -0.30583585       0.07765890      -3.36460883      -0.11711461       2.07838631
I        9.64936662      20.53352323      19.24849128       0.05328306      -0.36604260      -0.19532253       0.24805772       1.66162106      -2.51596848
I       15.78233484      18.52144824      18.85370393       0.38427367      -0.00091895      -0.02679426      -0.33496609       1.44180746       3.55542230
I       11.98674005      16.12848189      18.42058963      -0.03986378       0.07831487       0.04415520      -1.80914931       0.46513494      -2.68197448
I       13.37311678      22.40664147      18.97916826       0.09704396       0.23344530       0.04092020       2.33123037       1.59409438      -0.13123406
I       15.54133207      18.28238015      12.98014190       0.35738318       0.05530605      -0.21434162       3.08638712      -0.25030690       2.95690900
I        9.63040200      20.32220973      25.17591263      -0.11272049      -0.13857018      -0.13580107       2.91794036      -3.84658851       0.05497509
I       13.52322643      22.63972483      25.18499709       0.04510307      -0.24878588      -0.19964772       0.25460318      -0.95875388       0.03282163
I       11.96331903      16.16346376      12.74536229       0.00761353       0.21248663       0.13886960      -0.70793175      -2.30131756      -0.89846765
I       18.86248838      19.38303532      22.19353676      -0.06518983       0.11125353      -0.10122566      -1.46532873       1.47642786       1.19704666
I        6.85758873      18.96175266      15.66255782       0.13823014       0.05310317      -0.17532826       1.25963553      -0.29208896      -3.19063279
I       13.27316936      19.69709838      15.94829464      -0.23530716       0.07100059      -0.31463938       0.90725794       0.40788631      -0.81263677
I       13.51646755      19.24790247      22.14720895      -0.10707028      -0.05345875       0.14919797      -0.68255368      -2.09802838       1.87400464
Cs       9.06656439      22.01852464       3.12021266       0.10812827       0.02536518      -0.03870578      -1.56745667       3.24711380       0.37505619
Cs       4.29585034       3.45227937       9.43939568      -0.16479797       0.16133891      -0.32121731      -2.09544017       2.51369981       0.61646471
Cs       3.35009848      23.00586810       9.64757933       0.00016427       0.08712868      -0.11549064      -0.06853725      -0.23577029       2.60265335
Cs       9.23717572       2.30631430       2.66465468       0.01532750       0.19750433       0.09114994       1.59518326       3.29231814      -0.47981906
Pb      -0.44402116      -0.03155979       6.24301484       0.11999194      -0.28457076      -0.18221262      -4.27388431       1.39532549       0.35466668
Pb       6.06989070       0.08502714       5.87241244       0.14473527       0.13912973       0.07764410      -0.13066516       0.27300944       2.47641439
Pb      -0.12739945      -0.22416448      -0.58769806       0.04686034       0.23475063       0.08838987       6.26304514      -0.99531207       0.93618334
Pb       6.12140718       0.17759997      -0.17548977      -0.01113837       0.13476572      -0.33050649       4.02994617       0.99138416       1.71733950
I        3.21210943       0.66876491       6.79934324      -0.20540501       0.09320814      -0.18069085      -3.34020991      -0.98152417      -0.29132982
I        9.54956133      24.44753014       6.04919012       0.06060669       0.23224569       0.01196852       3.88156935       1.79640279      -3.39889961
I        5.81013400      22.38908635       5.74750274       0.00434704       0.05439581      -0.03822631       1.44861147      -2.78306419       1.46303468
I        7.57410416       3.63715638       6.27615204      -0.19744907       0.00982700      -0.05668420       0.75940068       1.09378477       0.89029385
I        9.44215316      24.85263438       0.20194137       0.11839553      -0.11191357       0.01282579       1.74799498       3.30468605       1.85039473
I        3.14566058       0.94130102      11.88666292      -0.42752262      -0.02264160       0.09827669      -0.40714251       1.12881782       2.85718085
I        7.05336987       3.24540435      11.96042559       0.24065644       0.19454467       0.18979980      -0.49880819       2.26997814       0.13140148
I        5.54441401      22.59054034       0.34578984       0.11453652      -0.31256093      -0.12452524      -1.04050878      -3.15796806      -0.18597090
I       12.86850152       0.49549040       9.01238024      -0.07104466      -0.06913935      -0.03294151      -1.71834806       3.57080112       5.77984907
I        0.09654074      24.94505960       3.02876387       0.00547401      -0.11381191      -0.09894759       2.29961398      -0.62414350      -0.25235056
I        5.62732723       1.13921240       2.76755776      -0.01839186      -0.05110102       0.26302330      -0.45668187       1.18630405       0.39456343
I        6.72363254      25.61241014       9.37127375       0.14154267      -0.22259742      -0.30791663      -1.22838505       0.06745868       2.55773315
Cs       9.45067644      21.97356329      15.62479994       0.02177771       0.12528119      -0.04821531       2.00301222       0.80824252      -3.13152804
Cs       3.36064231       4.08075280      21.84534184       0.31811041      -0.36712254       0.24392944       0.99001806      -0.68557376       3.85521052
Cs       3.70845744      22.37776191      21.57762682      -0.21989326       0.29139715       0.13684232      -0.52675683       0.47407856      -0.38215355
Cs       9.62194312       3.40104928      15.93158049       0.02202980      -0.10483973      -0.04971036       3.67478760      -0.54629959       0.84914122
Pb       0.18004366       0.39586146      18.70254678       0.05157607      -0.07571095      -0.02810689       2.80045822      -0.52724245       0.39384498
Pb       6.58856532       0.29438400      18.85309135      -0.37825651      -0.05057911       0.18882040       3.90503680       1.50715901      -0.68879561
Pb      -0.05618528       0.61993392      12.37611826      -0.01361412      -0.19247053       0.21558012       0.55404593       1.14301608      -4.82031010
Pb       6.01451180       0.30785116      12.40305281       0.47064866      -0.16194275       0.19363004      -1.98326418       1.49895961      -2.50707085
I        3.33737691       1.02823628      19.47583885      -0.12063985       0.02552428      -0.09926086       1.64430377      -1.17261606       3.28183029
I        9.67388662      25.27170294      18.09722442       0.49761443      -0.07554859      -0.14425786      -0.59335543      -1.09560530      -0.29025479
I        6.23988126      22.41169171      18.89231454      -0.06150066       0.06453191      -0.23071915       0.32979903       1.57582637       0.48480143
I        7.33226339       3.44923821      19.21497429      -0.09150772       0.13961861      -0.10022127      -0.61334227       0.70168368      -1.07979622
I        9.84944668      24.62758733      12.37258479       0.07005217       0.05959337       0.06302021       1.76290833       1.36596112      -1.40057865
I        2.93453247       0.77583418      24.60624725      -0.01419448       0.06604480       0.10224164      -2.44799342       0.08596109      -1.18558769
I        7.02811054       3.28085983      24.33117166      -0.09366292       0.17402787       0.00846472      -0.20656884       1.29702280      -2.89119349
I        6.34030179      22.33038596      12.73669012      -0.11902592      -0.02206279      -0.00294903      -2.43529148      -0.90460555      -2.74728301
I       12.16138359       0.25550172      21.68018153      -0.07178955      -0.00859676       0.21684012      -1.29369050       0.55157608       1.61061549
I        1.04472516      25.78195684      15.50107530       0.00932419      -0.00974662       0.20086584       0.52510204      -3.06535284       1.06892681
I        5.89865467       0.07410177      15.66955324      -0.04656217       0.10928488       0.02134115      -0.06359679       2.48655489      -0.76237287
I        7.02577292      24.97068964      22.15124341       0.00102111      -0.01736367      -0.07657810       2.49935802       0.94070558      -0.33962816
Cs      15.37184711       3.22964810       2.67050209       0.04789310       0.06112378       0.09853434      -3.13328099       1.57780972       0.87112955
Cs      10.23012361      10.10832598       9.10411839      -0.01736418      -0.05694119      -0.07821904       0.87350542      -2.20464281       2.38763024
Cs       9.94798670       3.09464617       9.29954181      -0.12264065      -0.02641224      -0.20534381       0.13673313       2.73429060       1.45126885
Cs      15.66518278       9.83052517       2.85324620       0.00209293      -0.17698504      -0.19529512      -0.37589213      -1.07878328      -1.90235131
Pb       6.03603906       6.47151704       5.46966623       0.19395251      -0.01297165       0.19638452      -3.45694919      -1.25014245      -3.74510664
Pb      12.39281623       6.73337673       5.87736862      -0.00747199       0.17301723       0.07751212      -2.48333018      -2.54836014      -0.93859922
Pb       6.38840906       6.40426417      -0.57347109       0.00280344      -0.00338971       0.01411495       1.08729181      -2.65653889       1.18564544
Pb      12.60052782       6.41076114      -0.23644510       0.05736291       0.04329375      -0.30378595       0.86256255       0.46608727      -2.32314192
I        9.33988480       7.76868537       5.86970213      -0.11328288       0.01885178       0.02452454       1.81979373       1.96555879      -2.92943264
I       15.53578538       6.13085774       5.47909426       0.27269300       0.05864397       0.02668699      -2.48571407       2.38148033       2.82810653
I       12.22516267       3.59776076       5.53657460      -0.18410035      -0.13544810      -0.01928089      -2.09308250      -2.62608428      -1.28699195
I       13.41127990      10.07932188       6.03823769      -0.18096748      -0.02790082       0.27481546      -0.55213645       0.72496303       1.84414278
I       15.90869929       5.85991503      -0.12144351      -0.16679084       0.04256627      -0.02042298       3.03553469       2.78356673      -0.55989387
I        9.59770252       7.51849615      11.73155341      -0.32712506       0.07423770       0.09564676      -0.98231141      -0.23679844       0.70336267
I       13.37054637       9.97227953      12.07065843      -0.08731390      -0.01472271       0.05616275       0.38531775       1.02239308       0.71977741
I       11.79402449       3.30145943      -0.43820299      -0.05685003       0.29532843       0.14105304       3.41811013       4.63048739       3.17319590
I       18.33670506       6.48572462       9.02665706       0.03313517       0.27438780      -0.13026735       3.37815862       0.25002886      -0.94751716
I        6.84035319       6.02021412       2.46505346       0.05742448      -0.00134907       0.45873699       0.48052611       0.44295233       3.08023441
I       12.77707286       7.37482078       2.78905273      -0.13216245      -0.14767043      -0.04629590      -3.13977612      -1.86839246       1.70457284
I       12.73295733       6.42959293       9.12664730       0.03938705       0.03430526      -0.15460916      -0.26819983      -1.59909894      -2.57234755
Cs      15.90483957       3.26513991      15.65717684      -0.13983645       0.25410242      -0.06646007       0.00718326       1.67383360       0.07869122
Cs       9.93829615      10.16659285      22.43868873      -0.02940923      -0.14072877       0.05302834       1.96641234       0.42606458       1.90573574
Cs       9.93205994       3.67546008      21.74799178      -0.04876973       0.00512312       0.21763168       0.29076855      -1.19340305      -0.44202595
Cs      15.66998245      10.15957310      15.91970064       0.18074656      -0.11146166      -0.08961201       1.95581250       0.09297058      -2.11520686
Pb       6.73055212       6.71587254      18.81040761      -0.07698366       0.04356798       0.02326013      -0.70459152       0.98934665       0.54932672
Pb      12.79450866       6.79718211      18.64984725      -0.02556678       0.04605264       0.14810896       3.48695924       0.21716909      -2.42139978
Pb       6.41240619       6.43736934      12.20969357       0.07698696       0.26016496      -0.05930237      -0.69078957       3.33633440       0.71220494
Pb      12.60493603       6.79637861      12.23969904       0.06444322      -0.00421374       0.12911607      -0.23925962      -2.46512625      -0.56432230
I        9.90865086       7.92073159      19.58751284      -0.36519868      -0.17634163      -0.19516468      -0.42081106      -2.41770267       0.80529740
I       15.76220557       6.53505382      17.91450643       0.27769188      -0.05040294      -0.11291486       0.23299977       3.16266558      -3.39971315
I       12.42803809       3.71746982      19.15884359       0.07386557      -0.25127135      -0.30886632      -3.75919836       0.70073000       1.45830574
I       13.62738729       9.98248907      19.14169859      -0.14468720      -0.01351582      -0.02346451       0.75954828      -0.21076382      -1.21388895
I       15.68909215       6.27518095      12.65743640       0.22913879      -0.11836233       0.03492175       1.29717834      -1.06881957       0.16041454
I        9.40194083       6.84983742      24.20073946       0.16847736       0.05552177       0.10456734       0.39707704      -1.84076067      -0.19192996
I       12.75109243       9.83227385      25.04686195       0.13804045      -0.06719877      -0.23338211      -1.92023998       1.04505189       2.45271820
I       11.78644779       3.79758080      12.28008701       0.06422062      -0.36165099       0.27102737       0.23305996      -0.47201463       0.26264890
I       18.60285086       7.12619279      21.23609706      -0.20286590       0.03059368       0.46163016      -1.65117157      -1.13387510      -3.55898337
I        6.99504853       6.22222872      15.68875118       0.04237883       0.04037646       0.02198901       0.35154642      -2.04574327       0.38236675
I       11.84347541       6.46619453      15.66500165       0.10460141       0.03765872      -0.05693390       1.33713670       0.08522582      -4.56445274
I       13.25675760       6.37706382      22.11197674       0.08857114       0.08619843      -0.00988602       0.40537699       1.18437180      -0.82431608
Cs      21.09291760       9.65859632       3.24514168       0.16010233       0.07244389      -0.13139990       2.95482400      -3.50351166       3.97167272
Cs      16.31141848      16.41079538       9.46194601      -0.01139782       0.08693708       0.12039233       0.90894101       1.57145520      -1.27564163
Cs      16.16820353      10.16875837       9.49742261      -0.10471149      -0.02727393      -0.22018254      -3.35428166       0.99813804      -1.52157636
Cs      22.37538350      16.29470583       2.93084423       0.01750624      -0.09971630      -0.05664465       1.23731510       1.21517105      -1.81603946
Pb      12.52141189      13.38922906       6.12909651       0.11702728      -0.50983121       0.08392686      -0.08381932       0.52547569       1.99770521
Pb      18.88937764      13.46001343       5.80855701       0.02036020      -0.13009240       0.21620966      -0.79929057       2.77978932      -2.77194800
Pb      12.75207636      12.94297514      -0.75218593      -0.01466525       0.24866417       0.28387290       1.66904378       0.92615203       0.63999063
Pb      19.05402400      13.16098053      -0.40355284       0.19592170       0.00281430       0.03227798       3.45014246       1.18468773      -4.97171536
I       15.49659394      14.06366313       6.85524268       0.17265568      -0.12072006      -0.12498125       0.56079731      -1.03295661       1.67955045
I       21.81355181      12.70711146       5.16474071       0.33340871       0.03490975       0.24508859       1.57630218       2.52321296      -2.29897827
I       17.81641842      10.44925485       5.62277619       0.19876700      -0.30771175       0.25081641       0.95045261       0.73834969       2.64210044
I       19.77173761      16.41911340       6.03869406      -0.01164611       0.02209334       0.17762464      -1.21515013       1.45180988      -0.11979963
I       21.98982737      12.13592739       0.35796304       0.20644524      -0.02084452      -0.05355603       4.83522728      -0.31689188      -0.98480293
I       15.99851770      13.23016330      11.73694257      -0.27479930       0.17433750      -0.04809012      -2.86058359      -0.19475572       3.43953610
I       19.67368812      16.12923604      12.58378538      -0.09995619      -0.05617415       0.01292555      -1.29100402      -0.53900029       2.09384791
I       18.30372647       9.50003022       0.17055555       0.00839133       0.16661182      -0.13684763       0.28277095      -1.46379507       0.57385914
I       24.72588523      13.09012858       9.26371676      -0.03233345       0.11927793       0.07701730      -1.30287193       0.90265458      -0.15736866
I       13.12669040      12.33308516       2.54125394      -0.04778475       0.49784536       0.09422278      -2.70912804       2.84877864      -0.65485911
I       18.82311729      13.58500470       2.76701589      -0.28577959       0.12540229      -0.04057304      -1.65109107      -2.48036573      -0.88821332
I       19.86829830      13.37668786       9.66573498      -0.19266310      -0.17933562      -0.23875138      -0.52295222      -3.37423021       2.76132266
Cs      22.49435696       8.65461206      15.61122947      -0.16736318       0.27559102      -0.08981867       1.80006774       1.90029781       0.85307641
Cs      16.47062328      16.23610493      21.77108886       0.03911784       0.08084572      -0.03089912       1.76540605       0.43769037      -1.02062472
Cs      15.88968325       9.93261489      22.22577321       0.05588684      -0.07814269       0.06912574      -2.24250782      -0.32802970      -1.10364940
Cs      22.03917835      16.54958133      16.02344799      -0.16520844      -0.19214420      -0.05123553       2.47135405      -1.00199527      -0.48736423
Pb      12.73976044      13.13009266      19.04394553      -0.00626554      -0.10913985      -0.28942916       1.59228365       3.19839812      -1.42210545
Pb      19.24754787      12.65534560      19.11093282       0.11455093       0.23386053      -0.16438062      -0.01858655      -1.69141623      -2.65756320
Pb      12.48963782      13.16092439      12.44844072       0.10112819      -0.18732269       0.39072014      -3.36170818       0.88661425       0.63330057
Pb      18.88093962      12.95490613      12.76362291       0.20722490      -0.04451615       0.01733585      -0.09406059      -1.88493439      -1.26568194
I       16.20956773      12.94072475      19.74877753      -0.09734688       0.11774405      -0.11343977      -2.30216016       1.38648755      -0.77773022