480
Lattice="25.732714527653894 -0.0703191977974842 -0.18405578413653145 -0.10691611967513086 25.668423922586282 -0.1480234368552052 -0.10669403828520795 -0.09118626619134691 25.876265013549425" Properties=species:S:1:pos:R:3:forces:R:3:momenta:R:3 energy=-1744.73779296875 stress="0.0015825224108994007 -0.000253219943260774 -9.815449629968496e-06 -0.000253219943260774 0.001105969538912177 -0.00017530826153233645 -9.815449629968496e-06 -0.00017530826153233645 0.0013750288635492325" pbc="T T T"
Cs       8.48568267       9.21539179       3.15864112       0.12549545       0.08221690      -0.02834148      -0.47087576      -0.85256087       0.63497696
N        3.08725357      15.81269596       8.71677916      -2.07919752      -0.95354418       0.41718847       1.05666458      -0.31166623       0.15227823
C        4.02177049      15.63023630       9.82395777       1.59348499       0.79046936      -0.33533108       0.15662563      -0.68312195       0.64599077
H        5.02229578      15.62793604       9.29216298      -0.60064922       0.11386745       1.11046343      -0.15760469       0.12204813       0.31249953
H        3.89386240      14.69878734      10.39089347      -0.26956627      -0.00371325      -0.23933861      -0.06142894      -0.02474818      -0.15982721
H        3.85320552      16.52944032      10.48139966       0.59578757      -0.74051954      -0.30868644      -0.24869381      -0.28151908       0.07499949
C        1.66513675      15.85737566       9.22308796       0.20151616       0.31848920      -0.18190139       0.58094494       0.50146184       0.07639654
H        1.09058807      16.15688022       8.33575018      -0.35169695      -0.35753758       0.29305375       0.20351738       0.12291949      -0.24832370
H        1.54891258      16.65185094       9.99032492       0.19371800      -0.51151087      -0.18491603       0.03049566       0.03534063       0.01783943
H        1.45161657      14.83407964       9.60035909      -0.26626880       0.60882567      -0.10032627       0.13725374      -0.05462026      -0.18950075
H        3.04080686      15.06245927       7.98307915       0.72651391      -0.18255612       0.17145834       0.24699694       0.26185436       0.13678457
H        3.27732662      16.67903618       8.24569904       0.32096909       1.08091957      -0.62708920      -0.11576272       0.10467896       0.21659748
Cs       2.50848282       9.71799612       9.35802703       0.21663369      -0.02168574       0.10061216      -0.02617591       1.73907715      -2.67585074
N        9.71825919      16.29282940       2.41168117      -0.62689922       2.20756119      -2.33819026      -0.37047113      -0.08008040      -0.38330561
C        9.30028220      17.72334617       3.00134672       1.50914613      -0.40233594      -1.14204991      -0.02416628       0.59768303      -0.42047593
H       10.00797619      18.53660363       2.55528395      -1.11759691      -1.31691624       0.52240190       0.01710052      -0.08830562       0.26356406
H        9.55840450      17.57950176       4.05675714      -0.43187812       0.42762357       0.06540322      -0.07519714      -0.08625195       0.22622848
H        8.24237986      17.98037500       2.76770510       0.49182116      -0.49320127       0.34722151      -0.09460162       0.06164921       0.11112997
C        9.56068250      15.23041004       3.40257810      -0.56554642       0.80099225       2.18891951       0.45966988       0.17515386       0.61679138
H        8.52072170      15.41595285       3.73074217       0.01336064      -0.79634486       0.04298014       0.01087350      -0.03705578       0.09249018
H       10.14587604      15.51553239       4.33979346      -0.21141733      -0.33759565      -1.13185574       0.01909107       0.04279123       0.02061977
H        9.76641466      14.18838124       3.14419748       0.06122709       0.15924204      -0.58127449      -0.10945872       0.07287475       0.16318826
H       10.66497742      16.40024837       2.01141500       0.44996565      -0.21708134       0.27676491       0.08339535       0.05250875      -0.05852214
H        9.16708068      16.16696260       1.47538479       0.32710514      -0.18681669       1.58353277      -0.32538584       0.08793215      -0.14608572
Pb      -0.36967930      12.77625032       6.64946953      -0.15072640      -0.10303596      -0.08435556       1.26263778       0.88642472       0.41250331
Pb       6.02448949      12.88106347       6.02977348       0.17713750      -0.17154025       0.29893959       0.08073235      -0.73689962       1.75111518
Pb      -0.39703908      13.20171368      -0.19915188       0.21847946      -0.10869713       0.44119422      -0.31023997      -0.98433328       2.45619363
Pb       6.44585726      12.90930805      -0.21110374      -0.03333698       0.19791201       0.16752655      -0.44351046       4.26679958       1.01682247
I        2.85500117      12.83110611       6.76791234      -0.12547407       0.08159167      -0.04952232      -2.61770340      -0.99020732      -0.87563929
I        9.13578966      11.88795779       5.92311251       0.22283367       0.19466154       0.05414628       1.13395140      -1.07074462      -1.88735273
I        5.57936484       9.72186836       6.32438984      -0.07320134      -0.44953612      -0.06015211      -2.13925900       0.67446779       0.73754119
I        6.35868365      15.87736282       5.52157149      -0.00330856       0.58636769       0.17953706      -0.70845112       2.10343902       4.36428140
I        9.57098017      12.12945016       0.70047335       0.08234724       0.02381484      -0.11411915       1.10482420      -1.51698796       3.07843783
I        3.13792158      13.05895901      13.14470199      -0.07203263      -0.04733654      -0.01927971       1.70460904      -0.10789709      -0.81505144
I        6.62178729      15.83675367      12.90967926       0.12108103      -0.07953077       0.02218412      -1.95279880       1.40203208       1.32185149
I        5.31445386       9.40482443       0.36434316       0.09584054       0.22894055      -0.09259077      -1.44028926      -1.38261851       1.89331968
I       12.62720269      12.74552632       9.91625802      -0.05507836       0.04093917      -0.33062181      -2.34685837      -4.20331740       0.00405615
I        0.34703042      13.28305661       3.03999122      -0.05723595      -0.22270769       0.04342036       2.86608492       1.08266325      -0.96396158
I        5.45858908      12.78401880       3.09960638      -0.05879292      -0.08633048      -0.30283182       3.57387188      -1.13008626       0.56117679
I        5.98297357      11.95782326       9.78413629       0.00306091       0.05425531       0.06552770       3.35503583       0.66202957       0.98364711
Cs       9.37491563       9.51751186      16.65309793       0.04167297      -0.02775768      -0.10019191       0.15881088       1.76419949      -1.87391888
Cs       3.34423349      15.81487211      22.52587118      -0.10482485       0.24594078      -0.03247373       1.89505823      -0.77529000      -0.40017997
Cs       3.64561937      10.62774995      22.71647606      -0.08792863      -0.20139250       0.01021100      -0.73813640      -0.75742425      -4.61402634
Cs       9.31464609      15.76032767      16.22892645      -0.10212422      -0.00379236      -0.33425627       0.16183304      -1.95499159       0.82819748
Pb      -0.36898302      12.70403265      19.62660138       0.09729987       0.08162108      -0.10165245      -0.40526913      -2.81727427      -4.66538590
Pb       6.07524761      12.67692677      19.29014803      -0.00794497       0.22919054      -0.05558550      -2.03460561      -3.96762864       1.62033183
Pb      -0.69221656      12.84088483      13.28954706       0.23380826      -0.08770515      -0.18447826       1.71284892       2.18031946      -8.22292271
Pb       6.32433275      12.59595951      12.96623660      -0.11055212      -0.05381219      -0.09105531       1.21402699      -1.54373862       1.39661879
I        2.98662933      13.38372859      19.52980287      -0.06369941       0.05885030      -0.00792349       0.69400777       0.39906941      -1.94276741
I        9.17311518      12.57318358      19.06212711       0.49459383      -0.09401861      -0.03052980       0.42928351       0.34384975      -0.74079772
I        5.76211470       9.54795113      18.99617773       0.02189700       0.03183734      -0.08099503       2.70690455      -4.94412473      -2.68593315
I        7.09790148      16.07725150      19.17765671      -0.17829737      -0.00355342       0.12513108      -1.24192065       0.48037908       2.07455227
I        9.61877957      12.36561064      13.81072320       0.05206832      -0.07142148      -0.11032066       2.44112105       1.28843917      -3.61761278
I        3.25567884      13.56676098      25.43839835      -0.15480490      -0.14773737       0.08688085      -3.05718849       4.44579338      -3.06748637
I        6.68277814      16.02401869      25.66880917       0.13208585      -0.09385116       0.14090782      -5.83491384       1.92264608      -4.18723213
I        5.84883782       9.59426281      13.83206586       0.15776160      -0.19916931      -0.05294877       1.02434459       0.00035862       0.72754658
I       12.59975538      13.27163887      22.45574291      -0.12087343       0.08249364       0.01122871      -0.62114318       0.73894877      -1.07183340
I       -0.09242634      12.73065493      16.39206025      -0.02736783      -0.00329291      -0.17170666      -2.33885327       0.67389244       1.96051510
I        5.85828642      13.08186154      16.06146880       0.04140085       0.08370305       0.33781380       0.89764882       1.10096743       0.67923228
I        6.35305742      13.48001699      22.56129516       0.09079359      -0.19620094      -0.09689945      -0.24663812      -0.48536104      -2.36205751
N       15.25720137      15.59631975       2.59699658      -0.48792488      -0.63603319       0.56856286       0.47128217      -0.44476105      -0.62863345
C       16.22996703      15.52381205       3.72508627      -0.31057400      -0.50810801       0.67835314      -0.43371664       0.90676647      -0.17063216
H       16.30878817      14.53629872       4.18975438      -0.32443879      -0.24730999      -0.23697732      -0.35094003       0.17982348       0.18838669
H       15.97323682      16.22612575       4.55645391       0.12111787      -0.15750281      -0.82695591       0.18733441      -0.03964707      -0.06801839
H       17.17844732      15.69955258       3.26884416       1.06645290       0.64949785       0.03054851      -0.17580191      -0.18796397      -0.12259062
C       14.77434108      17.01474525       2.53838998       1.53875388      -0.25719821      -1.26360948       0.91628143       0.80188921      -0.05113221
H       14.04861388      17.16607486       3.29665925      -1.00650267       0.08711975       0.70556022      -0.06593626      -0.13369010       0.04221919
H       14.44520800      17.24196848       1.50001130      -0.05275353      -0.03510495       0.65458081       0.09721628      -0.24599751      -0.17365707
H       15.67352165      17.61555313       2.81023546      -0.58535993      -0.09276844      -0.34728551      -0.19676418      -0.18545272      -0.14348431
H       14.49622964      14.81539001       2.74668557       0.38243618       1.14538568      -0.12915466       0.03520517       0.15713184       0.07454047
H       15.72473974      15.31602166       1.69945810      -0.15395826       0.16691976       0.24941569       0.10535346       0.08599006       0.06480129
N        9.10080052      22.76126314       8.77215818      -0.84235358      -0.83361653      -1.66266679       0.97875534      -0.30211930      -0.44061502
C        7.81022117      22.20929319       9.18467873      -2.27894068       1.45943337       0.64856145       0.18633393      -0.12155393       0.76691894
H        7.20760063      22.99366668       9.78112941       0.96108301      -1.05665622      -0.61965080       0.32933861      -0.03227642      -0.27273384
H        7.93557019      21.30061282       9.74879836       0.40791585      -0.38497430       0.52313362      -0.09276759      -0.20849817       0.03177243
H        7.21218937      21.92619929       8.29455786       0.23376528       0.30247820       0.20130467       0.06939609      -0.00206974      -0.01226181
C       10.16620580      22.71714318       9.73304103       2.00239836      -1.20291150       1.11049628       0.04259069       0.18286601      -0.83355196
H       10.18335816      21.72361226      10.26439063      -0.33854032       0.79041477      -0.26535459       0.09717937       0.11787189       0.00125158
H       10.17808369      23.54806448      10.45322891      -0.43642532      -0.05964361      -0.10580107      -0.17875997      -0.00444364      -0.21948088
H       11.11629265      22.73151464       9.17659167       0.02365488       0.20901917       0.08315256      -0.08568695      -0.06854937      -0.13314713
H        9.01097978      23.71993943       8.39136996      -0.13895196      -0.06265867      -0.23423403       0.29321150       0.13744381       0.14254051
H        9.30383025      22.10515525       7.94376440       0.62289164       0.80600036       0.31221322       0.12205928      -0.01811389      -0.38347293
N        8.94949488      16.35980802       8.10393693       0.10945715      -1.16836844      -1.83269214       0.22217973       0.42414764       0.06908794
C        8.70279264      17.62650070       8.77668672       0.98293124       1.55462671       1.25308947      -0.54536830       0.28250790       0.20913114
H        7.67558441      17.53105069       9.25592501       1.18335942       0.48056171      -0.07082459      -0.41040884      -0.10341923       0.04181362
H        8.75056885      18.50704944       8.06106101      -0.29286324      -0.92629437       0.51158137      -0.08810669       0.00964805       0.00303235
H        9.60191282      17.78011269       9.49954613      -1.69418067      -0.08569272      -0.67433368      -0.19425924       0.27052233      -0.21015802
C        9.25609623      15.25523099       9.06974991      -0.73681057       0.25103056       1.69680967      -0.71594267      -0.45558385       0.13847570
H       10.08829965      15.64094854       9.72295508      -0.68592439      -0.47194424      -0.40116161       0.20923570       0.05599257       0.01091550
H        9.52187700      14.28388830       8.66408499       0.31502188      -0.01654400      -0.80121231      -0.03561850       0.21518561       0.07527746
H        8.34026856      15.01772318       9.69007799       0.73272009       0.60772491      -0.33016252      -0.11884934       0.03327961      -0.01278557
H        9.80745031      16.39430935       7.46437730      -1.09200029       0.25010938       0.36510064       0.02440956      -0.19435487       0.30554876
H        8.04962057      16.20702666       7.51542164       1.25142709      -0.53299677       0.16308944      -0.28782833      -0.02920496      -0.12748210
N       16.73683494      22.14080421       3.01654620       0.29855618       1.65778329       0.01758085      -1.08677584       2.19302298      -0.11291287
C       15.46229577      22.28522368       2.25325448       1.04476615       1.54207260      -0.43957494       0.12570874      -0.09156382      -0.69150987
H       15.61743204      23.13303684       1.54566963      -0.25965717      -0.45718280       0.30184801      -0.17579057      -0.10468678       0.01619276
H       14.66900267      22.50048384       2.93096809      -0.71826788       0.39572733       0.74293356       0.11616465      -0.21721617       0.03713312
H       15.20880473      21.40924589       1.71648359      -0.02024179      -1.20813271      -0.63223513       0.08095981       0.00430527       0.16903920
C       17.27564456      23.46995479       3.55305618      -1.19428708       0.26534594      -1.07983284       0.55148885       0.69152794      -0.73162755
H       18.34881290      23.39396484       3.67701674       0.32183294      -0.18480211       0.49019374      -0.43797410       0.07285135       0.06705758
H       16.70211497      23.72431679       4.46880242       0.37504092       0.04063900      -0.37272096       0.08089907      -0.13422326       0.04635197
H       17.11033269      24.20064226       2.72364088      -0.05479590      -0.18391940       0.64240459      -0.02277137       0.17723334      -0.08842223
H       17.49979484      21.82304674       2.37857766      -0.26714625      -0.76928834       0.37590152       0.01339351      -0.23094115      -0.36384447
H       16.55404413      21.60916619       3.87112487       0.31591544      -1.18579829      -0.01620567      -0.19300810      -0.18587002      -0.20748031
Pb       5.84992954      19.24576584       6.00941269      -0.07706196       0.23197113       0.07340880      -1.49493738       0.22870280      -5.05485782
Pb      12.54814826      19.67396011       5.63798302       0.03552294      -0.02930889       0.10387238      -0.72734021       0.12765006       0.88924492
Pb       6.46582969      19.48760680      -0.21785046       0.02228999      -0.00294985      -0.27584376      -0.68960492       0.50391784       2.76776275
Pb      13.04065592      19.60519352      -0.56840944       0.08180338      -0.20927574      -0.25995702       0.32642717      -3.41758455       0.60172327
I        9.53409502      20.63174919       5.90203536       0.01114790      -0.11803872       0.02738466       3.06442160      -0.90768733      -0.67499369
I       16.03216757      19.67497984       5.69039063      -0.37511855      -0.09872017      -0.01722132      -2.59104277      -3.37469408       0.39721194
I       12.62754610      16.40648546       6.09030861      -0.10466330       0.02543725       0.14820259      -1.58759607      -1.04864421       0.90390619
I       13.59943711      22.69463627       6.38379165      -0.19036457       0.01502685      -0.11917017      -2.63879052      -0.28594860       0.75761196
I       16.27837917      18.90031531      -0.38356728      -0.10570958       0.08683954      -0.16242667      -0.81658691       0.78518543       1.24472898
I        9.39197417      19.70160946      12.89263283      -0.05551512      -0.06649249       0.07202449      -0.13654443       1.75768418      -1.26015714
I       13.42428853      22.55782442      13.00951710      -0.06542432      -0.20768443      -0.15843112       1.42985263       2.29950742       1.10231850
I       12.49016989      16.16365018      -0.20010857      -0.17339405      -0.20135433      -0.06938533       1.16379351      -2.76786843      -0.68445553
I       18.77393239      19.45655674       9.43050959      -0.02416070      -0.15364813       0.16428514      -1.45490788       1.65596174       0.30518838
I        5.84676167      20.25631901       2.60173856       0.07211881      -0.06595924       0.52186715       0.83321201       1.37819583       4.29253821
I       12.26875847      19.86709317       2.30515608      -0.05294346       0.29528155       0.65463066       1.59544318      -2.26418485       0.78960835
I       12.63843170      19.10805750       9.52579406       0.02818978      -0.11296196       0.08677325      -0.11423856      -1.65411670      -0.62245486
Cs      15.85843621      16.21836572      16.27957363      -0.09254039      -0.09538459      -0.11811467       0.04538727       0.16471671      -1.70541762
Cs       9.56016038      22.61442735      22.28617569      -0.01972055      -0.00960217      -0.06090608       2.90919875      -1.69512135      -0.67590668
Cs       9.85808056      16.77598354      21.98521539      -0.10105016      -0.05329012       0.11493099      -0.31743413       1.97143519      -1.08334929
Cs      15.98136147      22.01819049      16.26772601       0.00797749       0.08257672      -0.04944488       1.82203908      -0.22662112       0.19968735
Pb       5.89282427      18.99735728      19.32626327       0.11017215       0.04350801      -0.41384446      -3.54259014       0.79733730      -0.57373200
Pb      12.84125474      19.48259428      19.34098508      -0.04316231       0.05643465      -0.35414844       1.49175690       1.86929180       2.33163383
Pb       6.18392809      18.73429061      12.73219232      -0.13270709       0.56240136       0.14705810      -2.70340232       1.07916598       5.56758153
Pb      12.56276917      19.10116843      12.78711518       0.06411619       0.01307731      -0.09316341       3.35429751      -2.05990270       0.57776960
I        9.66086445      19.86357286      19.50760428      -0.14448903      -0.03164617       0.00405413      -0.58549489      -0.74579045       0.96063446
I       16.06513906      18.99955445      19.26498340       0.14525860      -0.12204219       0.00849539       1.84921109      -4.27855354      -2.03719167
I       11.87780329      16.24658315      18.71684644       0.16832326      -0.02616028       0.04514181       0.22892556      -1.68900283      -3.38811980
I       13.02664532      22.48293275      20.00133906       0.09949824       0.05249803       0.02650366       0.84710745      -0.60879653       1.18041516
I       15.91983524      18.77025974      12.97290881      -0.22499114      -0.18111423      -0.09608557       0.17974338      -0.69412236       3.74730804
I        9.41040785      19.64063845      24.61584840       0.20281363       0.03933464       0.05183640       1.56686150      -0.97718604       0.68992329
I       13.05546590      22.57193318      24.64114982      -0.02988003       0.10515649      -0.07569343       0.98988845      -0.57988910      -0.12721572
I       12.61254238      15.76922988      13.26397139      -0.09561854       0.25250774       0.05249242      -1.36575384      -2.54928578      -2.13272113
I       19.06160351      20.20938995      22.32519226       0.11902201      -0.18416005      -0.05530875       0.38196706       1.68344938      -2.27990198
I        6.44292920      18.90135551      16.05881491       0.17689572      -0.01386415      -0.23298141      -0.83151940       1.29798451      -2.27285640
I       13.18904929      19.59977637      15.90729481      -0.20290891      -0.11140257       0.08827067      -0.22787158       1.50271761      -0.49257526
I       13.24925525      18.69051679      22.21444514      -0.01559949      -0.14774692       0.12400479      -0.68080490      -0.62801823      -0.12834510
Cs       9.33108177      22.92375498       2.98907127       0.02761133      -0.02879943      -0.18728701      -2.45605635      -1.28499353       0.67457030
Cs       3.87856205       3.43409029       9.24984654      -0.07803288       0.05349747       0.03742312       0.45933516      -0.36376034       1.57028674
Cs       3.44128300      22.90288198       9.30201529      -0.17494759       0.07457469      -0.07412673       0.62044347      -3.20006446      -0.06072568
N        9.09127692       3.47487786       2.35884878       0.51388586       0.80976379      -0.00575778       0.71509396      -1.53747423      -0.08676712
C        9.81254927       4.58366471       3.09622229      -0.41093272      -1.56470575       0.42066982       1.06010499       0.13545038      -0.21415751
H        9.03907329       5.29781841       3.28809048      -0.27401435       0.85681633       0.50287923       0.05185626       0.02608686      -0.03120513
H       10.60145628       4.93236359       2.46726923       0.61627743       0.47669642      -0.47258210      -0.10000699       0.05104306       0.28266694
H       10.22127762       4.09291401       3.99777608      -0.10055993       0.47852742      -0.11994213       0.17736103      -0.01305715       0.02631565
C        8.20664026       2.69374408       3.22956771      -1.38203969      -0.43609790      -0.75907056       0.43900693      -0.29432235       1.16246947
H        7.91089029       1.78430206       2.69703771      -0.30897951       0.15032983      -0.55828670      -0.28143044       0.09029517      -0.03769409
H        7.25349308       3.23955213       3.55007633       1.41701386      -0.30097039      -0.25656174       0.19459338      -0.18637457      -0.05461033
H        8.79677042       2.26258910       4.00048178       0.59368910       0.23181400       1.37191631      -0.08847268       0.12583110       0.00316862
H        9.84633628       2.88500101       1.97911560      -0.22072512      -0.22636097      -0.25172030      -0.24434970       0.17958508       0.18332105
H        8.58408191       3.91912390       1.56304434      -0.02418074      -0.37693080      -0.07072258      -0.00789781       0.09605469      -0.11025567
Pb      -0.00764539       0.22202684       6.54312327      -0.21740784      -0.06201736      -0.36539666      -0.76209084       0.96358801      -0.52772594
Pb       6.29238932       0.16292774       5.82951362      -0.12300044      -0.23101591       0.19172555      -2.07446448      -0.82312790      -0.60152000
Pb       0.06632800       0.84621325       0.08302893       0.19037883      -0.29822804      -0.14265653       4.47125956       0.09224017       1.87243283
Pb       6.51221754       0.38685099      -0.43434324      -0.33595083      -0.22527874      -0.06574619      -1.67382202      -4.07166731      -0.62748140
I        3.11550252       0.19420210       6.90974214       0.10892533       0.11483714      -0.06324682      -1.59901711      -1.47041843       2.15448502
I        9.45676651      25.21901607       6.00288483      -0.01428257       0.09046047       0.07515303       0.02529593      -0.90849321      -2.00355822
I        5.29026904      22.45942822       5.76359357       0.05354660       0.00855793       0.02538349      -2.32181223       1.73569685      -2.70606652
I        6.52154852       3.16084648       6.40803084      -0.02400602       0.28662378       0.29000085      -0.45511374       0.83849087       1.76203297
I        9.46703910      25.32268261      -0.63526999       0.32621936      -0.02720506       0.01101074       0.50003641       1.22604860      -0.24371541
I        2.94505748       0.96959223      11.88956547       0.08545637      -0.22324579       0.17734298      -1.21887640      -2.79412770       2.05144931
I        6.88035116       3.29008778      12.28089662       0.08391143      -0.02920109       0.01687017      -1.99052778       1.89506208      -0.23317923
I        5.93041408      22.64237972      -0.62060733      -0.02061285       0.06580936      -0.06902548      -3.01500896      -2.08888392      -0.41879599
I       13.02876088       0.79974525       9.29457708      -0.14524073       0.02718699       0.19278816      -3.20577991      -0.03873645      -0.52316159
I        0.45027518      26.03747546       3.00162658       0.06604407      -0.12367984      -0.00208408      -1.07224018      -0.35275461       2.31277218
I        5.53061024       0.44565548       2.81258960      -0.09513225      -0.19064940       0.10791571       1.25456650      -0.49347061      -0.78839376
I        6.42016292      25.78909236       9.40492540       0.08141523       0.07722052      -0.06783939      -2.80787348       0.02642336      -4.03311600
Cs       8.82436469      21.99823681      16.32006590       0.00839824       0.00261800      -0.19974424      -3.12268225       3.07631939      -0.82076791
Cs       2.94078962       3.65145953      22.38159104      -0.00587314      -0.06448671      -0.10993831      -0.28674149      -2.84799848       2.24997674
Cs       2.97277819      21.81664656      21.78055307       0.19776101      -0.00605492       0.26564145       2.21208481       0.35175012      -0.16581043
Cs       9.58171494       2.75679837      15.65531564      -0.11754984      -0.04572061       0.22377788      -0.51433799       0.41330596      -2.35046515
Pb      -0.14960089       0.10612735      19.26030756       0.20474549       0.23243371       0.02545692       0.42108176       2.59504701      -3.43834397
Pb       6.15189229      -0.10257676      19.15505961       0.11351579       0.12375767      -0.08620844      -0.73000379       1.03171263      -3.92845941
Pb      -0.11721214       0.17433677      12.69031770      -0.06701955      -0.00394268       0.11643466       1.00568353      -2.20996116       0.82038731
Pb       6.29639700       0.24438758      12.68170391      -0.08295932      -0.34753672       0.01700333       1.25438562      -2.01496541      -0.65299726
I        3.03889031       0.78443578      19.28890424       0.06009994      -0.00400605      -0.00875583       1.18541187       1.81630268      -1.98028812
I        9.35973043      24.54390763      18.93802923       0.10168847       0.24951827       0.16496829       1.19163943       0.25198988       2.27459882
I        5.69444934      22.31281609      18.77947089      -0.14309542      -0.03177171       0.05799085      -0.80047951       0.85579466      -3.66703602
I        7.21681627       2.88449059      19.26552089       0.02070173       0.19731612       0.09192604       1.20081749       1.62254870      -2.65695846
I        9.52211958      24.86533205      13.41802403       0.04330663       0.08239932      -0.21931252       4.38369454      -2.34879742      -3.18306068
I        3.23651979       0.92789573      25.44489206      -0.10374725       0.10735866      -0.08021987      -1.83980105       2.04359222      -0.64140700
I        6.94223391       3.35345401      25.15482479       0.04084936      -0.04904743      -0.04229963      -1.54421311       1.68277644       5.41844534
I        5.18397380      22.64422099      12.55783165       0.10111004       0.19255858       0.24649437       0.56598241       2.64674796      -1.67798040
I       12.92884456       0.84351018      22.24773383      -0.24816282      -0.14221462       0.28627612       0.77423709      -1.07796047       0.80549310
I       -0.48989368      26.22555498      15.80661906       0.12959718      -0.31774206       0.09359486      -1.40458225       0.91492061      -0.68986110
I        6.97180980      -0.03320968      15.92724260      -0.27385506      -0.00429549      -0.01040029       0.89610443      -0.19542161       0.59135828