640
Lattice="26.025767090259524 0.11791267423868801 0.01816393432744353 0.10658958492398939 26.257298544678886 0.07299969601889954 0.018021191652981414 0.12271230987672657 26.20735465345775" Properties=species:S:1:pos:R:3:forces:R:3:momenta:R:3 energy=-2585.932861328125 stress="-0.0002785658580251038 -0.0003946140932384878 -0.0005002394318580626 -0.0003946140932384878 0.0009869736386463046 0.0006106767687015235 -0.0005002394318580626 0.0006106767687015235 -0.0001980261004064232" pbc="T T T"
N        8.90380254       8.74225983       3.18197781       0.13102162       1.46377168       0.47763282      -0.89354496       1.29879562       0.61966222
C        8.27982918       9.82604625       4.03973071       2.18145031      -1.37272700       1.31880121       1.03876730       0.02203651      -0.76164770
H        7.48270710       9.35225723       4.61317643       0.07160500      -0.03637405       0.39888317       0.03851009      -0.17495842       0.04256292
H        7.85012081      10.57042276       3.42801603      -0.23684234       1.11396423      -0.92748024       0.13992096       0.06974709      -0.02363188
H        9.15542010      10.19821205       4.69125106      -1.56627781      -0.20083809      -0.78437941      -0.16280268      -0.11092590      -0.06785640
C        9.90611431       9.37266594       2.26411154      -0.74827019       1.63453608       0.59292127       0.01214837       0.26660474      -0.14882701
H        9.40392688      10.26385267       1.71179709       0.71422257      -1.36084766       0.83088044      -0.17469534      -0.07161385      -0.03713135
H       10.28372238       8.65668805       1.55617124       0.39108458      -0.40895982      -0.28027328       0.07071263       0.03571023       0.25090343
H       10.63540896       9.75908711       2.99897598       0.28994642       0.06243961      -0.78380032       0.01195034       0.28528119      -0.16057419
H        8.16244788       8.30699353       2.66143500      -0.94396760      -0.83699779      -0.67051432       0.08601946      -0.17521226      -0.17006153
H        9.31538043       8.04503182       3.82820754       0.07595854      -0.01889181      -0.16327492       0.36680160      -0.25465068      -0.17247518
N        2.92450972      17.02215786      10.60239176       3.19164142       2.31672669      -1.54845889      -0.00899475       0.34541331       0.19110693
C        3.70943510      16.43111533       9.45612282      -0.89126178       0.13323420      -2.20957355      -0.60667874      -0.05135631       0.08783990
H        4.25437035      17.21317124       8.88586054      -0.37934029       0.04391864       0.52150644      -0.01871677       0.07011094      -0.06309363
H        2.90073575      16.06967571       8.75806518       0.90341956      -0.17495829       0.49638958       0.05709162      -0.16854831       0.08935065
H        4.49458872      15.66941266       9.67193353      -0.83080449       0.12873963       0.62285740       0.11637880       0.00415765       0.15100411
C        2.08909142      16.09195411      11.25199395      -1.76973813       1.33334508       1.90531870       0.05560288       0.38886913       0.99783414
H        1.31911839      15.87668423      10.55146305      -0.85727234      -0.85165200      -0.57795797      -0.17786789      -0.10267926      -0.01337379
H        1.62612415      16.67954136      12.08452179      -0.00155032      -0.52512902      -0.26809319       0.18603548      -0.05786614       0.16662583
H        2.58500057      15.25645484      11.69406261       0.70742216      -0.81227699      -0.13356665      -0.17953382      -0.16154957       0.21761057
H        2.42122356      17.97723324      10.33377951       0.25815044      -1.58892514       0.09435318       0.24223317       0.23543416       0.05979079
H        3.70149413      17.37459243      11.17360595      -0.17497870       0.06769530       0.86785567       0.37236502       0.16946794      -0.28292574
Cs       3.27774007       9.79182689       9.58561693       0.01412584      -0.02948736       0.20613113       0.42477864      -1.35362910      -2.45124188
Cs       8.91174002      15.97657845       3.19660433       0.24048906       0.22135275      -0.07503156      -2.25615661      -0.55466896      -0.47398311
Pb      -0.05840304      12.96436519       7.06156557      -0.06921418      -0.08964326      -0.07436295      -0.73574335      -0.24268640       0.10825874
Pb       6.29556516      13.61273622       6.91679153       0.35309564      -0.24868361      -0.04004914       1.70163467       0.89683611      -1.49337054
Pb      -0.10368442      13.03985526       0.50039109      -0.17912932      -0.03862952       0.20723814      -1.30627014       0.09141578      -1.38477741
Pb       5.95622600      13.18992679       0.19724854       0.48571330      -0.05388977      -0.10034954       1.30849709       0.02131826       0.10881055
I        3.31197857      13.01338589       6.55106331      -0.20740487      -0.01332501       0.10945554      -1.43686593       1.76410078      -0.06753309
I        9.50435121      12.72134327       6.73618047       0.03648030       0.06327017       0.02877589      -0.82580931      -0.98713094       3.30223566
I        5.85926354       9.62610767       6.77938695      -0.14775797       0.05186183       0.26723468       0.11803575      -0.86669036       0.75424576
I        7.11052150      16.54819173       6.66070094      -0.02866128       0.07962884       0.05964754       0.29533975      -1.66393953       0.12130146
I        9.62360191      13.45263753       0.20116685      -0.20812280      -0.03834457       0.00948309      -0.78256997       0.28994519      -0.25365907
I        3.17955633      12.73190697      13.30596933       0.23126640       0.11887995       0.22700508       2.80689389      -1.39214805       0.77156662
I        6.75190607      16.43130578      12.70792611      -0.01626305      -0.02489565       0.26706943       2.23055448       0.28725385       3.44422578
I        5.98940600       9.95821409       0.38823084       0.03223846       0.00036640      -0.10763698      -3.57408937      -0.35217355      -1.04079911
I       12.62944679      12.92382262       9.65316903       0.07174421      -0.04976310       0.07815285       1.93460092      -1.31628056      -0.98615355
I       -0.02103465      12.80463866       3.79494492       0.12449578      -0.09612811      -0.15776034      -1.60777400       0.99872554      -1.92421059
I        6.50031724      13.37166435       3.53342222      -0.16015835      -0.23171978       0.00001349       0.54027211      -1.70569866       0.34329874
I        7.00254537      13.27505243      10.33061237      -0.20983627      -0.11169525      -0.21865986       1.09845126      -1.41293103       1.82797216
Cs       9.82862933       9.74818070      16.09025961      -0.05455117      -0.02026913       0.15761327      -1.14780480      -0.70969744       0.66641235
Cs       3.42043338      16.74639339      23.54250700      -0.06219896       0.01385789      -0.16558239      -3.68747509      -1.21517123       3.45579823
N        3.47862961      10.67207173      22.24907069      -1.56208461      -0.16945249      -0.66309972       0.59273486       0.18555404      -1.09898386
C        3.57732761       9.74404052      21.08459967      -0.92721626      -0.34629923      -1.33710621       0.48143940      -0.81434064       0.14445607
H        4.26753206       8.86609294      21.07899603      -0.18233757       0.59036674       1.10158558       0.07821931      -0.10638891       0.04159248
H        3.88726741      10.29276727      20.15778057      -0.36666939       0.02499486       0.70051587       0.16702547       0.10150154      -0.08971359
H        2.52752333       9.39557625      20.96530956       0.49654901      -0.09919273      -0.14059292       0.00881900      -0.27249301       0.06624803
C        2.70988292      10.14661439      23.47161599      -0.49525659       0.84625963      -1.14376564       0.25632686       0.52477865       0.14640465
H        2.92251862      10.76473057      24.36044817       0.00861259      -0.11351724      -0.30369117       0.02360038      -0.05662658       0.23971221
H        3.09170546       9.14946115      23.56297204       0.03086683      -0.84775850       0.44953943      -0.17841909      -0.11261064      -0.09732812
H        1.61200920      10.15310417      23.23241416       0.91640086      -0.10672089       0.13751426      -0.11421915       0.18453593       0.03228232
H        3.07244622      11.57593269      21.87471052       0.36824724      -0.72769068       0.59400283      -0.08066214      -0.11381588      -0.06449216
H        4.42256567      10.86408896      22.51408718       1.64460631       0.74919486       0.72916767       0.15213685      -0.15806471       0.28118904
Cs       9.78837011      16.50735217      17.19815717       0.05396397       0.05582584      -0.00073938       0.02288898       2.85532456      -3.87575419
Pb       0.43856818      13.39046165      20.14571218      -0.21924475      -0.21122531      -0.26006357      -3.35141427       1.62575742      -2.37654788
Pb       6.46750082      13.15589070      19.61527307       0.24390806      -0.05005673       0.20312628      -4.89326324      -1.65050434       0.36239072
Pb       0.14338780      13.20940063      13.34659454      -0.13878216      -0.17496213       0.27590813       0.08294491       0.96066518       3.43118950
Pb       6.87491514      12.98931598      13.55590076      -0.08731969       0.02690029      -0.27990835      -3.61488228       0.90079304       1.83201182
I        3.55180176      13.85232437      19.20980236      -0.21963705      -0.01061832      -0.07321499      -1.56248458      -1.76641721       0.25694170
I        9.87687270      13.00858088      19.44368166      -0.38739546      -0.06840936       0.00098223       3.93898124       0.36869584       1.05243969
I        6.64319254      10.08859791      18.69642189      -0.01547137      -0.11252106       0.01902961      -1.30923705      -1.61221421       1.53582318
I        6.94073055      16.46560608      20.37767450      -0.31928275       0.14284759      -0.31273669      -3.03001524      -3.58619034       0.00293511
I        9.81049736      12.00803820      12.96678478      -0.16359534       0.25046842       0.28778816      -0.92698492       1.46797229       1.76755379
I        2.99997251      13.22330676      26.56621838       0.16508626       0.14584474       0.01447572      -2.25268068       1.00085202      -0.87004911
I        6.22326778      16.57260370      26.04353211       0.23049737      -0.11992511      -0.34912389      -0.28784737      -0.92156323      -0.33908226
I        5.91607544       9.70522000      13.25819166      -0.02405647       0.29180764       0.01697030      -1.46441432       0.32822903       0.56916978
I       12.18254666      12.97293441      23.05509911       0.07423687      -0.01018343      -0.13625602       1.60401168      -2.23699190       4.04812453
I       -0.11446678      13.14118316      16.65908053       0.22176444       0.06062445      -0.04524057       2.25389068       0.44351244       0.94368925
I        7.45197046      13.64588413      16.61145998      -0.19299278       0.05049756      -0.28220657       1.37515195       3.52831880       0.23680331
I        6.10202679      12.63028095      22.92934462       0.32555710       0.21914641       0.15863662      -0.04720864      -2.62591067      -1.77596561
N       15.55903492      15.99526549       4.64004974       2.72977176      -1.18254806       0.32167203       0.27082729      -0.68741117       0.53155711
C       16.43814817      17.21944321       4.85734097       0.86625354      -2.08688319      -0.79454097      -1.05466784      -0.06240130      -0.14331295
H       15.94299279      18.08029221       4.45732915      -0.23243833       0.59097634      -0.67320955       0.26210933      -0.06889455       0.14340307
H       17.40523405      16.89511290       4.33009704      -1.06148004       0.98286870       0.60845768       0.19444732      -0.12113540       0.01043705
H       16.62118407      17.37948785       5.91431034       0.05312459      -0.18076082       0.40989009       0.19748747      -0.02306652       0.03464836
C       15.46016523      15.58586314       3.21255779      -1.54672420       1.11298228       0.62479840      -0.43697711       0.01249622       0.00540629
H       15.18917544      16.51373878       2.70059521       0.48552025      -0.02729137      -0.50102706       0.32029387      -0.00189003      -0.05916496
H       14.62585737      14.90752129       3.05205799      -0.23676011      -0.32201109       0.18965078       0.14524371       0.07090552      -0.22407122
H       16.35671034      15.10110578       2.94092177       1.36835076      -0.28086358      -0.71438003       0.09017756      -0.11228051      -0.04492685
H       14.67233201      16.00598725       5.06393443      -2.37254195       0.87060631       0.86574456      -0.05378004       0.04005762       0.01318879
H       15.99217410      15.19156905       5.20643994       0.01030949       0.52660520      -0.45162640      -0.19615199      -0.35895480       0.00016797
Cs       9.65350267      23.23737647      10.14010235       0.02391919      -0.04773403      -0.02290085      -1.07176530      -0.58826330      -1.22770547
Cs       9.95859419      15.58870845       9.79333094      -0.01462851       0.22228532      -0.03107558       2.76535565       1.70166456       4.22147086
Cs      16.86951066      23.18747579       3.63413327      -0.49476820      -0.30578035       0.03641520       1.71448746      -2.88531481       2.44108815
Pb       6.50909681      19.87661573       7.06093854      -0.36166014       0.19076324      -0.05864760      -2.31275870       0.32513499       0.13183302
Pb      12.77263679      19.84341677       6.83919422       0.07774039      -0.00824564       0.01994295      -0.44676744       4.93847681      -0.03677808
Pb       6.31318694      19.73032536       0.51813141       0.29882451       0.14816911      -0.83218383       3.51454660       0.16337321      -0.12597216
Pb      13.54869795      19.68626126       0.11441397      -0.84476400       0.08680522       0.09243582       0.33010206      -1.34028173       0.29178627
I        9.44279230      19.83837120       7.44525024       0.50074556       0.13830399       0.04307019      -1.91355988      -1.32580653       3.15146134
I       16.21106364      20.29096196       6.94106151      -0.09747809       0.06998444      -0.00227739       0.58655087      -0.38249257       0.09702953
I       12.29267063      16.19503683       6.61455427       0.01347372       0.08066919      -0.06239975      -0.11745360       0.86444757      -0.16830610
I       12.90062946      22.89290827       7.27505476      -0.12361513       0.05718284      -0.01824339      -3.92591506       0.62567030      -2.29684194
I       16.35069034      19.41073368      -0.05455503       0.72047037      -0.17308389       0.02806654       0.53865901       0.25894902       0.49696072
I        9.66747276      20.17673220      12.76840084      -0.10430043       0.05674819       0.00674900       0.72425738       2.33280396      -2.59198580
I       13.15563029      22.73437866      13.68756906       0.08470389       0.13124326       0.02953003       0.70297301       0.44816896       1.71241024
I       12.73785569      16.53528308      -0.34620056       0.07840886      -0.18641828       0.08608126       0.20229765       1.73769587       0.91801418
I       19.72461840      20.06056630       9.94575328      -0.26140063      -0.01303552       0.17588479      -1.71036716      -0.76435914      -1.77224996
I        6.64054597      19.81872379       3.34874735      -0.03866865      -0.39123786       0.88137852       2.82396594      -0.95466474       1.47598098
I       13.32932447      19.73563642       3.49026615       0.02139906       0.10678632       0.00910021       0.34789484      -0.46692892       1.75950229
I       12.72110336      19.18738633      10.01511388       0.04116036       0.05116608      -0.14979295      -1.04377740      -0.57535625       0.84993044
N       16.86507193      16.02140226      16.18940290       1.19384850       0.01052046       1.50953529      -0.73644414      -0.60823175      -0.38638644
C       15.66823099      16.71190561      15.71637526       0.49326305       1.63908262       0.58047036       1.20131005       0.07613119       0.05514817
H       15.70806307      17.69813104      16.29683860      -0.59177908      -0.99493586      -1.10111261       0.15398273       0.25224591      -0.05141728
H       14.79778076      16.12682799      15.91206089      -0.80122840      -0.44410385       0.65102216       0.01319449       0.24451160       0.00108976
H       15.70659162      16.81008886      14.63344224       0.22309541       0.44008713      -0.15521701      -0.19607109      -0.19134467      -0.02066986
C       17.19813577      16.22030969      17.66568625      -2.36879767       1.23768854       0.02226245      -0.16601550      -0.06267008       0.66016998
H       16.29860820      15.95921767      18.32245487       1.20088956      -0.47036170      -0.92272997      -0.11090634       0.18910304      -0.15874504
H       17.26605522      17.32042930      17.85698965       0.40034618      -0.56111641      -0.39597138      -0.04194384      -0.12510792      -0.03512821
H       18.13167395      15.71499117      17.81584133       0.37524889      -0.49409103       0.61539898      -0.01185725       0.03177929      -0.01175792
H       17.72468398      16.35089208      15.69609752      -0.03578144       0.26612579      -0.48232001      -0.08884002      -0.31981986       0.31575450
H       16.86162634      15.02838026      16.00412731      -0.31436707      -0.87928512      -0.32684102      -0.16617123       0.10351040      -0.20909860
N       10.06670929      22.48420158      22.61512865       0.38560212       0.46636265      -0.06182736       0.08058841       0.26941164      -1.00063585
C       10.45862601      22.10559571      24.04746598      -0.87959086      -0.15309838      -1.35672687      -0.73274457       0.63532366      -1.13443414
H       10.67599272      23.06221286      24.54816946       0.53675416      -0.49707518       0.02060529       0.09606658       0.24752335      -0.08082701
H       11.16782646      21.26085303      24.00138278       0.29602366       0.72696719       0.25930944      -0.25536928       0.10590736       0.01605128
H        9.52748507      21.70622999      24.45357146      -0.07247021      -0.02157267       0.31779407       0.04730445       0.02746863       0.02327617
C        8.82324006      23.29279319      22.63245310      -1.51970331       0.17266896      -0.74015361      -0.11316865       0.91667066      -0.73947855
H        8.88949588      24.25619192      23.12307895       0.71534943       0.30199736       0.50084771       0.11587826       0.00756642      -0.08394786
H        7.93900765      22.77434929      23.11360460       1.04159474      -0.04263639      -0.33817324      -0.05259101       0.07426474      -0.07403432
H        8.52617810      23.54356587      21.59792150       0.13732093      -0.24321664       0.13394906      -0.01509083       0.10004233      -0.00285552
H        9.84158426      21.65642921      22.01631589       0.13693869      -0.42717086       0.28671144       0.21250293      -0.10273385       0.09755075
H       10.84289404      22.94745442      22.04074729      -0.70833146      -0.21585288       0.94306927       0.06873537       0.01070315      -0.15617625
N        9.31117749      16.55285554      23.90865803       1.70214257       1.22020151       0.74354230      -0.51911907      -0.62107000      -0.12294933
C        9.35994720      15.49484602      22.92672369      -0.13823893      -1.44294370      -1.38021324      -0.03511565       0.11209269      -0.65456327
H       10.39771330      15.29551334      22.55609222      -0.52925417       0.48232409       0.24454845       0.30462243      -0.17596721      -0.13010278
H        8.68187059      15.78531885      22.08119661       0.43885467      -0.32643216       0.49643570      -0.04036412       0.02110415      -0.32859678
H        9.03821818      14.53622784      23.41602099       0.03378334       0.74836885      -0.40521066      -0.00948319      -0.18352314       0.47737820
C        9.59075334      18.01976886      23.45723350       2.21205332      -1.74477586       1.70840684       0.81702644      -0.96379846      -0.13527918
H       10.34030560      18.02086096      22.67576853       0.11694437      -0.32807262      -0.42585296       0.16777485      -0.01639947      -0.06369667
H       10.01673371      18.59051987      24.30089779      -0.14749447      -0.40478448       0.03803231       0.18171493      -0.01899606      -0.07593220
H        8.72149957      18.48335884      23.17915846      -2.48466440       0.90868914      -0.98312022       0.03507868       0.18806422       0.18651650
H       10.00208795      16.26878841      24.63119372       0.33190980       0.44139004      -0.05949950      -0.05850653       0.16193017       0.09672419
H        8.46219413      16.47010519      24.44832162      -1.35365641       0.32366746       0.26191887      -0.02678019      -0.18215991       0.04818604
Cs      16.01781168      22.51275287      16.61136453       0.01997483       0.07038898      -0.20753573      -0.23719350       0.74029726      -1.54256675
Pb       6.52166359      19.69597470      19.97109918      -0.19364622      -0.07099065      -0.07414191      -1.65192951      -2.50173308       3.97739019
Pb      12.90200590      19.50490747      19.87808738       0.22741705       0.07529266      -0.22015019      -1.17519064       4.43968117      -0.29190131
Pb       6.34203237      19.69468410      13.30147914       0.18021619      -0.12141412       0.05261871      -2.20782782      -2.07230961       2.52175092
Pb      12.85234523      19.76372441      13.17981950      -0.09137901      -0.20153309       0.11562670       2.12006374       1.82816019       1.85990076
I        9.80751185      19.82256606      20.23670120      -0.20253244       0.08265427      -0.17384105       0.42423230       2.58982848       0.07196250
I       16.07948170      19.88410772      19.04393160       0.23434099      -0.15261161       0.19112614       1.86059919       0.10092609       2.03852731
I       12.81554573      16.45402359      20.12745825      -0.01011990      -0.31669901      -0.07540007       0.03695028      -2.95765074      -0.56297750
I       13.56609474      23.23789498      20.24908859      -0.15035582      -0.07252266      -0.03078277       1.10842174       3.27853041       2.21823524
I       16.16538950      19.89754586      13.59270083       0.07989968      -0.04372533      -0.01918384      -1.80931577       0.36858432       1.73304232
I       10.02003192      19.48111359      27.17412089      -0.10839978      -0.04925447       0.06654505      -0.63279628      -1.03951321      -1.73072917
I       13.84810865      22.83227244      25.42115784       0.12268269       0.16342250       0.16394337      -0.88827158      -0.53778343       0.25846907
I       11.86804676      16.08496473      13.12133078      -0.25274784       0.45883910       0.02109353       0.48871330       0.21122171       1.09347626
I       19.33773770      19.72121647      23.17433606      -0.03353527      -0.07933736      -0.18892493      -0.62163630       2.13717530       1.03069645
I        6.63871816      18.95033614      16.60837033       0.01034013      -0.05695592      -0.04064452      -1.16652321       1.85208090       0.89029040
I       12.57486506      19.06266300      16.37383274      -0.05706224      -0.06113674      -0.00814881      -4.02649212      -1.02413439       0.09388914
I       13.83885544      19.30057573      22.70121200       0.12697497       0.07066270       0.33489810      -1.10732898       0.80343113       1.94559908
N        9.64915499      22.48962888       2.52503325      -0.93338887       0.24440677       0.20161560      -0.15191277       0.36942301      -0.08506710
C       10.83026376      23.40223110       2.69630447      -0.29650003      -1.11675452       0.01347987       0.08755562       0.07800033       0.51479673
H       11.16877887      23.67013724       1.72482568       0.41783815       0.47620152      -1.08181972      -0.01137194      -0.17760904       0.11014083
H       11.65397924      22.86924837       3.18456989      -0.17401611      -0.04420553       0.30368499      -0.27896480       0.21720007       0.22976408
H       10.51430611      24.28214448       3.24508576      -0.07035389       0.18356808       0.21610771      -0.34244872      -0.01996445      -0.25315332
C        8.64409769      22.74696480       3.64858371      -1.71850044      -1.10154909      -2.58745625      -0.06493648       0.10296228      -0.48945691
H        7.73006760      22.06548146       3.45535401       1.46874444       0.43361319       0.60940864      -0.05057156       0.10144262       0.09477766
H        8.14689415      23.72664805       3.54267210       0.90543623       0.21528526       0.13039947       0.23319959       0.05672582       0.04484193
H        9.18707722      22.57614027       4.53415239       0.30512559      -0.13433213       1.46182483       0.06255144      -0.05179069      -0.01255768
H        9.87445137      21.45146252       2.34261309       0.15894502       0.56218939       0.69684951      -0.18375844       0.21778336       0.25274987
H        9.12563880      22.66065653       1.63522001       0.10434235       0.52548686       0.07561189      -0.09428560      -0.01884536      -0.27470482
Cs       3.56718549       2.76974500      10.00721122       0.04064296       0.31657126       0.21020302       3.11953948       2.98884749      -1.41046055
Cs       3.36223995      23.30383461      10.59669421       0.04703705      -0.12716556      -0.10918723      -4.58684948       1.87125411      -1.00993154
N       10.45333818       3.13957419       2.48262666      -1.89552605      -2.56681773       0.04074642      -0.74031413      -0.60372468       0.33276525
C        9.40759725       4.20598801       2.45617275      -0.28126023      -0.07643341      -0.26628127      -0.55166962      -0.53112752       0.61498191
H        9.68526554       4.89782466       3.24181276       0.13770810       0.61280858       0.08830655      -0.03050879      -0.04839134       0.08522323
H        8.43480754       3.77973247       2.75939604       0.21714339      -0.22832060      -0.18715841      -0.07773187       0.07362198       0.00564978
H        9.28005495       4.68388294       1.46351272       0.30908269      -0.12713224       0.37163725       0.02692677       0.04549633      -0.52249049
C       10.42087019       2.43950003       3.79155724      -0.17667063      -0.49364397       1.87817569       0.11418346       0.48330619       0.07646897
H        9.46630403       1.88486155       3.99201949       0.33404165       0.41287262      -0.72695086       0.18827230       0.02312046       0.09305202
H       10.46812932       3.18212021       4.61725179       0.33697779      -0.13604056      -0.41278910      -0.07637529       0.03663207       0.37043285
H       11.21853307       1.67139659       3.91948925      -0.14338095       0.59785457      -0.33211846       0.23054416      -0.08838239      -0.01530435
H       11.40299989       3.43748234       2.28927019       0.75450434       0.65432086      -0.51303408       0.08187193      -0.13846586       0.00355898
H       10.21249719       2.30866809       1.81527526       0.33660331       1.30410600      -0.01502395       0.14994817       0.05061960      -0.18803651
Pb      -0.14780888       0.00656611       6.92298894       0.03829299       0.10957178      -0.19540780       0.93932707      -0.36240931       2.10460485
Pb       6.47973215       0.27487707       6.40444849      -0.24439051      -0.17273522       0.11726241      -3.39679610       0.01001068       2.97092378
Pb      -0.16488537      -0.09497033       0.23946366      -0.16390312       0.01079281       0.11013965      -0.10989406      -1.01794982       1.58875999
Pb       6.28382443       0.14242936       0.04461520       0.19872984      -0.09752857      -0.02465606       2.57397048      -2.88869108       1.29876028
I        3.07908365       1.08941798       6.90744161      -0.10668463      -0.26683103      -0.25528939       3.16525865       0.01941673      -0.05507177
I        9.49631236      26.11664309       7.29958904       0.32508392      -0.10893533      -0.02985331      -2.59205323       2.36932537       3.40460444
I        6.09047083      23.19499089       7.21490616       0.06910067      -0.09701283      -0.05661715       1.24999123       3.83434481       1.05745195
I        6.66619219       3.22629366       7.34082507       0.07080254       0.08436477      -0.08385779       1.86206859      -1.91373251      -0.84798765
I       10.22524957      26.70011007       0.18205162       0.02290566      -0.09806382       0.05038129       1.68922228      -1.47685111      -0.14093001
I        3.14690421       0.44617234      13.30203986       0.16363686      -0.01852759      -0.04797283       3.97427457      -1.12242996       1.48448720
I        6.64648930       3.24318435      12.92046894      -0.01777159      -0.17572297       0.13048044      -0.27938684      -2.98520855      -1.63406553
I        6.82632157      22.89199126       0.22314934       0.07216114       0.07029897      -0.08849805       2.86579590      -2.11916366       0.73462978
I       12.84559572      -0.53299220      10.78054152      -0.00641232       0.00840812      -0.57377287      -0.78671665      -0.90873142       1.32700521
I       -0.99826368      25.26302144       3.45170172       0.21758338       0.07352688      -0.11199894       0.75832417       1.13451367       5.15232032
I        6.72087577       0.42729603       3.21664078      -0.02087460      -0.03466384       0.32750945      -0.12603937       2.42974921       2.19273216