960
Lattice="27.403122397661118 -0.24065733191853148 0.19965866456959608 -0.265823883861264 26.976125438306987 -0.09134011071854779 0.14381439593377526 -0.025261229411165327 26.78009084891176" Properties=species:S:1:pos:R:3:forces:R:3:momenta:R:3 energy=-4268.27685546875 stress="0.0020670641679316763 0.0014248198131099343 -0.0006510405219160021 0.0014248198131099343 0.000864138884935528 0.00017628708155825737 -0.0006510405219160021 0.00017628708155825737 0.0009753037593327463" pbc="T T T"
N       11.11063190      10.20414700       3.05716090       1.88239638      -0.41295226       1.31240246       0.45328036      -0.21555825       0.78722664
C        9.78476279      10.87470935       2.99475545       0.87318512       0.26442506      -0.40471504      -1.43468585      -0.52536276      -0.28778254
H        9.03117005      10.16501936       3.29123575      -0.55393527      -0.37173660      -0.26471029      -0.05453972       0.03878580      -0.24985992
H        9.69469948      11.37084536       2.02538700      -0.38522314      -0.37422027      -0.25477014      -0.15474925      -0.03033321      -0.31811252
H        9.80605866      11.67958439       3.69933415      -0.04802952       0.58277672       0.86116785       0.18439284      -0.23210990       0.13467735
C       11.35587579       9.44558307       4.40264330       0.62420897       0.98847198      -0.44036298      -0.17376107       0.87661757       0.67315780
H       11.36841459      10.16272778       5.28764301       0.01303184      -0.63139839      -1.18113136       0.07179468      -0.03319923       0.01846971
H       12.30193502       8.86434787       4.30050947      -0.29918144       0.63002178       0.11121974       0.14244137       0.09547266       0.03009626
H       10.58936680       8.70548303       4.52202066      -0.87408086      -0.33173761       0.03521037      -0.00606972       0.07861740      -0.02892401
H       11.93568841      10.91540667       2.98479994      -1.08235485      -0.63570997      -0.08181508       0.01540670       0.10618029       0.01843698
H       11.25150191       9.49875605       2.29484805      -0.30579012       0.37627183       0.11296851       0.10883415       0.22926003       0.40271656
N        2.47418621      17.52374607       9.02323795       1.34437169      -0.42969967      -0.13155734      -0.50421176       0.18069273      -0.50768531
C        2.18744619      17.59280227      10.46525566      -0.10890624      -0.21702972      -0.19309080       0.72772616      -0.55067456      -0.03157213
H        3.03000911      18.09063731      10.97679078      -0.39512932      -0.27491342       0.10101445      -0.22208586       0.20365424      -0.14693639
H        1.96545144      16.55573324      10.76827400       0.54114385       0.14887692       0.29822672       0.18622147      -0.18547339       0.09755963
H        1.24111381      18.08784812      10.54871377      -0.56056921       0.87276052       0.49987256      -0.01817829       0.19850829       0.02923916
C        3.64314103      16.58283549       8.89916621       0.01929641      -0.84569595      -0.85986954       0.32561863      -0.31307852       0.93653612
H        4.55215291      16.85772824       9.50063482      -1.11379977      -0.02310285       0.18049966      -0.08180426       0.23788591       0.18440463
H        4.05633580      16.49760109       7.89084543      -0.31455064       0.48406883      -0.44344550      -0.11966327      -0.01641912      -0.29011978
H        3.23981652      15.56473022       9.07358254       0.37508793       0.31101526       0.55360641      -0.01197754       0.02462213       0.35045976
H        2.70141843      18.41805896       8.52482638       0.05386087       0.40187940       0.40030404      -0.03104955      -0.38107591      -0.38355640
H        1.59595383      17.23213038       8.57168370       0.12047056      -0.48947907      -0.36338480       0.12695135       0.03796617      -0.16331400
N        3.49002546      10.08432451       9.25157233       0.38126161      -0.01838759       0.06041798       1.12019123      -0.88952966      -1.54632019
C        3.62304827      11.26653337      10.15353045       1.77442470      -0.86809215       0.81059201      -0.08530672      -0.35176230      -0.41748817
H        2.78275876      11.22770680      10.87770601       0.54742029       0.27138714      -0.22855754       0.32170862      -0.01979381      -0.24121003
H        3.68163756      12.13763430       9.51505305      -0.45887425       0.49012244      -0.11105455       0.08266012       0.09080298       0.10665209
H        4.68189333      11.18540675      10.62032621      -1.71399068       0.03315648      -0.20922237       0.11821260      -0.11109170       0.06682346
C        3.58083832       8.74972554       9.89120198       0.22657717      -0.37529991      -0.74804530      -0.77530545      -0.36335456       0.69193936
H        2.70810351       8.69784387      10.57662629       0.70658341      -0.35943414      -0.05570736      -0.05320846      -0.10018175       0.02125300
H        4.61789526       8.64735336      10.31724739      -1.06705239       0.08231677       0.14947358      -0.05651825       0.11267697      -0.05090866
H        3.50175138       8.02821109       9.00897100      -0.05891364       0.46496592       1.26810075       0.01520626      -0.18020484       0.29603457
H        4.22989542      10.10767195       8.54462148       0.07594817       0.27028020      -0.33705969       0.03619337       0.06526960       0.05994749
H        2.59424506      10.13099789       8.76450088      -0.45097279       0.10976863      -0.45489258      -0.03366793       0.17102169       0.00713484
N       10.00650405      16.82711334       3.90359358       0.72860572       0.96452931       0.12067340      -0.78533171       0.44610899      -0.32899336
C       10.21529310      15.63997112       3.06402753      -0.53282273      -0.68876928      -0.94638790      -0.50029005       0.47713391      -0.70665685
H       10.17844860      14.77703026       3.72209678      -0.15587323      -0.35134704       0.18334678      -0.07591746      -0.12409789       0.01979032
H       11.24515088      15.64556595       2.62436995      -0.78399662       0.27851141      -0.03644253       0.04617124       0.20297625      -0.20485415
H        9.35954936      15.55451057       2.30065435       1.28029042       0.20154130       0.79433772       0.21887796       0.11505658       0.03340084
C       10.13172671      18.15020586       3.13097268       0.29409695      -0.62163974       2.26892428      -0.68548201       0.16745774       0.63172150
H        9.84444798      18.91904332       3.84401753       0.22752876       0.30655206       0.08039732       0.05262046       0.13635797      -0.04887701
H        9.47980237      18.19522841       2.32174832      -1.64325886      -0.38898032      -1.48336570       0.07894559      -0.03599419       0.19623228
H       11.11968733      18.28584118       2.71945049       0.71379845      -0.14223185       0.23733482       0.04003434      -0.10843472      -0.24139379
H       10.68479567      16.80776343       4.68829701       0.61622016       0.18103826      -0.42691345       0.04194890      -0.14417098       0.06971168
H        9.16982681      16.75308657       4.51498627      -0.84544951       0.18961232      -0.53619212       0.10418035       0.03564155       0.11722414
Pb      -0.16558105      13.26545922       6.69310530      -0.22844641      -0.09870399       0.39151536       2.33066626      -0.46801598      -3.89084827
Pb       6.71459167      13.77642695       6.75250366       0.37375837      -0.08359762      -0.14217856       0.18426032      -1.65299268       0.73048798
Pb      -0.06916137      13.27760025       0.22745286      -0.06421127      -0.09792522      -0.13152948       1.85866221       2.36214195       1.51383004
Pb       6.41198079      13.51693949      -0.11645857      -0.04220657       0.16777256       0.17609940      -5.75792967      -1.77060450       4.57010845
I        3.83950129      13.17310019       6.66105191      -0.34252917      -0.01486139      -0.06740995       3.33516145       1.27211846       0.53083728
I       10.44140189      13.02290645       6.70263262      -0.09906438       0.06090693      -0.01402805      -0.76972036       0.77037162      -0.72769034
I        7.06189387      10.13900830       6.64651355      -0.04694727       0.04442909       0.02362585       0.66419626       0.40055983      -1.46543331
I        7.68825264      16.90437796       6.84875655      -0.08715576      -0.01585499      -0.13562645       0.15605253      -0.97454972      -1.23094147
I       10.24659406      13.52705003      -0.19325452      -0.11436155      -0.18743464      -0.04611798      -2.71256981      -2.32019800      -0.14865005
I        3.42792286      13.67155759      13.30397331       0.20925986      -0.24821076      -0.06145353       0.39410396      -2.94296720      -0.35626097
I        6.87036569      16.35708554      13.91741027       0.26175916       0.21515516      -0.09219884       1.00796663       2.16320775       1.13318760
I        6.29164279       9.46330159      -0.54945516      -0.11627180       0.29845339       0.06901014      -1.17382657      -2.77468910       1.49459413
I       13.74200421      13.38624539       9.81231798      -0.01167965       0.15189749       0.41982652       4.06207787       1.01100567      -2.82578265
I       -0.09397978      13.58119398       3.80904827       0.09227886       0.06570435      -0.23610337      -1.84589835       0.42681087       0.82705387
I        6.46521782      13.79794251       3.03430410       0.05015472      -0.05479806       0.13165635      -0.50761037      -0.67201237      -1.58834405
I        6.71375687      14.06972140       9.94844570       0.01571979      -0.02951762      -0.21919253       0.66479169      -1.76974635       1.57048835
N        9.87939306       9.04647287      16.45626535      -0.50924187       0.31161363       1.46732401       0.21959207       0.76699697       0.14612834
C        9.04942981      10.18367419      17.12414551      -1.80611865      -1.20276505      -2.05851361       0.20055397       0.37299869       0.49380259
H        9.47535380      11.14716938      16.90567626       0.40772137       0.40302843      -0.41695328       0.25744117       0.10956529      -0.14450595
H        9.03533797      10.06269330      18.17909155       0.04001058      -0.40126489       1.12113104       0.18361492      -0.25990732      -0.15949821
H        7.97905117      10.13909190      16.69244002       1.45073578       0.01412213       0.65813079      -0.21289758      -0.06831901       0.21102651
C       11.21482880       9.64197714      16.08812065       0.23252104      -0.52592180       1.07448586      -0.37672853      -0.25693178       0.19143054
H       11.73519304       9.64680346      17.05400869       0.26714845       0.63650989      -0.13207630      -0.02987020       0.15420224       0.04019508
H       11.03563951      10.66464443      15.67496950       0.34065912      -0.84515192       0.18292471      -0.08799915       0.06645035      -0.03924394
H       11.79170380       8.95727314      15.44686478      -0.31100583       0.30441887      -0.19246841       0.09704257       0.01445426      -0.09303367
H        9.49470859       8.74222850      15.55015859      -0.60341524      -0.24229930       0.07579046      -0.04477248       0.21988613      -0.02200033
H        9.86170480       8.19092977      17.16335140       0.45815192       1.64336805      -1.63349954       0.21962441      -0.13992796      -0.05984652
N        3.21063785      17.12683185      22.83130923       0.78059702       0.43765496       1.18634769      -0.84725519      -0.36616854      -0.39482530
C        2.47187347      17.24191732      24.10496137      -0.40140552       2.66465827       0.33131515      -0.44448325       0.34342756      -0.22161007
H        2.40539940      16.38178459      24.67261378       0.03976404      -2.53723058       0.69556815      -0.12285639      -0.15434712      -0.30496469
H        1.45104697      17.68434059      24.07754176       0.46488250      -0.22625861      -0.74630175       0.03252703      -0.21380097      -0.13564544
H        3.04646800      17.91960785      24.74245683       0.14944094       0.28626644      -0.03900660      -0.06539488      -0.17996720      -0.09574702
C        4.67452055      16.76456850      23.05975481      -0.65743968       0.43733314       0.64974219       0.60763047      -0.90140088       0.39962705
H        5.23302924      16.98842459      22.14741515       0.08101915      -0.13983411       0.01258995      -0.12563887       0.21028815      -0.01056728
H        4.69431886      15.68437255      23.31604647       0.18078606       0.44836362      -0.06607745       0.14920236      -0.08629570       0.05253356
H        5.04934797      17.38763079      23.91761987      -0.27134756      -0.52530052      -0.74536999       0.10860791       0.06537388       0.01352299
H        3.10741564      18.00427794      22.30367857       0.26786329       0.55735595      -0.20504009       0.11415478      -0.16205801      -0.05331818
H        2.80123763      16.43619353      22.24312394      -0.69311879      -1.32419167      -1.05701415       0.14086000      -0.01345890      -0.27059026
N        2.31823241      10.71671121      23.09632695       0.18126683       1.70970180      -0.75618305       0.40871505       0.71045096      -0.63071192
C        3.20952337      11.98772595      23.13062694      -0.31503864      -1.18099890      -1.07756858       0.49516190       0.58374363       0.95361177
H        3.82162305      11.95731597      24.02380617       0.26721006      -0.14926850       0.26867398       0.19374064       0.26966035      -0.29119646
H        2.61771682      12.88786699      23.11284515      -0.69702517       0.34112787       0.19685346      -0.18058591       0.15813185      -0.07070061
H        3.81952314      12.02840946      22.19549873      -0.11778205      -0.37381677       0.59882249       0.24127443      -0.13353287      -0.03334543
C        3.15746133       9.48694120      23.18345966      -2.51993501      -1.21588504       1.54948892       0.21612300      -0.10851993       0.53102614
H        3.68072416       9.51378929      24.13461771       0.55281626       0.17671580       0.15264578       0.13417868      -0.23531665      -0.16314113
H        3.78206687       9.51091788      22.33091564       0.95013543      -0.39369064      -0.93704273       0.09073864       0.11938370      -0.09322604
H        2.48841189       8.53958271      23.28402577       0.93341196       1.46976230      -0.61459250       0.00095695       0.01288054      -0.10698609
H        1.75474148      10.69919277      22.17330898       0.64063403      -0.02988733       0.56762765       0.05683690      -0.08464744       0.07101776
H        1.58010528      10.81698807      23.82217560       0.22950058      -0.42292623       0.38324445      -0.18213211       0.02987378       0.03382515
N        9.47781875      16.25151523      17.08131834      -1.71085519       0.09022380      -0.08382498       0.92112425       0.02707300      -0.34073501
C       10.45796215      15.21641380      17.35677050       1.56991385       0.19426942      -1.19934834      -0.17299456       0.16661906      -0.22154300
H       10.11899109      14.25496145      17.76578463      -0.25712499       0.41463197      -0.12000345      -0.13425676       0.02521222      -0.11771218
H       11.25623048      15.67061951      17.93203964       0.08627268       0.03763858       0.75540842      -0.16988653       0.25491267      -0.11189058
H       10.91434184      15.13844677      16.35620154       0.19167858      -0.88993837       0.11518130       0.08181645       0.17034375      -0.04831809
C        9.98670330      17.48911144      16.44712049       0.75312304       1.06169583      -0.25034951       0.01872782      -0.81823099       0.01722444
H       10.61260111      17.42289045      15.51040444      -0.80065822      -0.91130090       0.50460745       0.02659620       0.13666752       0.04473165
H       10.71066339      17.86850261      17.17479670      -0.03383110       0.45609554       0.16782206       0.02524859       0.19546352      -0.16476104
H        9.18013460      18.24283636      16.24910649       0.39754444      -0.66682871       0.30113585       0.29379228       0.04796309      -0.14083386
H        8.94032951      16.47651852      17.93460244       0.11543848       0.40981979       0.73818938       0.19979234       0.12041581       0.01291788
H        8.70753906      15.84726129      16.54323965      -0.30563570      -0.29153895      -0.79776568       0.02176546       0.13560222      -0.07882601
Pb       0.19787286      14.19034716      20.46504069      -0.05831947      -0.04189667      -0.04164034      -0.72836523      -3.83604448      -0.68455699
Pb       6.88894431      13.12325096      20.23926540       0.16751864       0.14472212      -0.10503753       0.57763061       0.05444156       2.34071718
Pb       0.11181963      13.67274202      13.40170338       0.06825608      -0.01436638      -0.01092082      -1.45819315      -2.42539110       3.89181344
Pb       6.71654635      13.52989438      12.87289048      -0.24610712      -0.04607779       0.38473248       1.16436550      -3.93369156       1.72864459
I        3.16365033      14.57788366      20.13565447       0.00940766       0.00026711       0.13469607       0.22215627      -1.03135218      -1.09753185
I       10.12782839      12.50063127      20.25467398      -0.04245961       0.16085743       0.00537916       4.63151869       1.71992221      -2.23139644
I        6.36241671       9.98277064      20.39019809      -0.00925640      -0.15435032       0.00694050      -1.63561294       1.30480689       1.88034082
I        7.40609821      16.47002322      20.07846526      -0.01122395       0.09611385      -0.00651375      -2.04390538      -0.95566001      -0.07243023
I       10.72380379      13.68013036      14.12606270       0.15506761      -0.06932514      -0.31949009       1.44688959       0.44873507       1.53742198
I        3.14583532      13.68223037      26.91735905       0.27078538      -0.04909023      -0.01864177       0.35738720      -1.18215670      -0.07136065
I        6.89369862      16.58835914      26.64966666      -0.09979502       0.07517631       0.18312469       5.60322440       2.39804311       0.96235925
I        6.68887125      10.19322243      13.52255606       0.04501449       0.01113363      -0.01687805       1.81430602       0.67774541       1.39820822
I       13.52000372      13.67588732      23.12406049      -0.09919533      -0.11715903       0.49215405       3.57773361      -0.12551924      -2.27632215
I       -0.04414488      13.26835424      17.53147136       0.03526543       0.10178532      -0.03246214       1.88461905      -1.57543063       0.67751047
I        6.45903574      14.01158247      17.13875155       0.12340031      -0.09163697       0.01438867       0.73573191      -1.11817766      -2.51373440
I        6.72170394      13.48623288      23.47622219      -0.04337130      -0.07560025      -0.06293118       1.84693797       1.38018142      -1.78339884
N       16.12624984      16.94947977       2.18965076      -0.79948198      -0.29749155      -0.02670317       0.27581950      -0.54556231       0.46619676
C       15.60435294      17.17418801       3.56761633      -0.11548224      -0.80045650      -0.35752738      -1.11908586       0.12939801      -0.01953764
H       15.00825965      16.31387190       3.90741461       0.12218225      -0.17923778      -0.30541011      -0.15779007      -0.00003493       0.02249047
H       14.99924050      18.03676320       3.71700653      -0.55155588       1.00914412      -0.40667161      -0.21186478       0.10960706       0.04225613
H       16.44470659      17.24495339       4.19249468       1.35945605       0.16806572       1.06299386       0.23919187       0.05286652       0.13073243
C       17.18419244      15.89710846       2.20234036      -0.69716592      -0.84400082      -1.49512130       0.54568576      -0.94456491       0.31498359
H       16.69968192      15.03893860       2.66523798       0.27506451      -0.34104693       0.34567706       0.04284332       0.06981185      -0.14515906
H       18.09086282      16.21094261       2.69046382       0.27796780       0.43895236       0.68983494      -0.04262887       0.07204676      -0.14136587
H       17.49588439      15.58128812       1.17227037      -0.42779780       0.38078343       0.45935287       0.08675181      -0.01820711       0.30040485
H       16.50249114      17.79297564       1.70850180      -0.17852771       0.39092758       0.11657841       0.19524301      -0.06839024       0.30223554
H       15.25146119      16.67447302       1.65461537       0.80088689       0.03501423      -0.18627894       0.12110948      -0.28273107       0.09402649
N        9.70004416      23.58931534      11.08340897       1.52747604       0.34926717       0.12160044      -0.37548667      -0.15568458      -0.43418209
C        9.12861126      24.03838968       9.77132266       0.47566472      -1.30399327      -1.91758806       0.64392634      -0.50958963      -0.06883392
H        8.60820328      24.96694737       9.79606497      -0.53790971       0.96208028       0.50102002      -0.09081894      -0.05480957       0.01444984
H        8.42624147      23.23153360       9.42148954       0.37267726       0.56301531       0.35107974       0.03946632       0.08185219      -0.13123546
H        9.90688105      24.13723366       8.88757507      -0.82662403      -0.23236618       1.94775967      -0.09692231      -0.06916294       0.05967451
C       10.63387570      22.43209084      10.75360717      -0.85147471       1.22442200       1.66935901      -0.35258413       0.77880750      -0.22680673
H        9.98486725      21.67499523      10.40147421      -0.37666288      -1.11221335      -0.58816071      -0.06003822      -0.26724385       0.36570260
H       11.12747908      22.18602125      11.68279904       0.24880159      -0.51862669       0.27394828      -0.08611397      -0.02305960      -0.04812358
H       11.35599412      22.80128494      10.06721251       0.65293505       0.18351046      -0.97485029      -0.20805534       0.16662581       0.06545161
H        8.99878536      23.31743823      11.84880447       0.45726053       0.33646149      -1.01001123       0.01329132      -0.09171669       0.17714766
H       10.36048300      24.31041076      11.53062082      -1.20691055      -0.25263314      -0.39822949      -0.05582329       0.10853023      -0.05661283
N       10.24976219      17.50881132       9.52689863      -1.15848537      -1.87318263       0.01750165       0.51624479      -0.47561691       0.69427728
C        9.12101346      17.34906705      10.54830097      -0.10902560       1.45913473      -1.14405892       0.21226096      -0.50819517      -0.34270855
H        9.18345266      18.24501688      11.17439149      -0.17591611      -0.11929969       0.19948100      -0.01811770       0.03406048      -0.44370062
H        9.27115707      16.45496106      11.13021019       0.23881620      -0.54222541       0.17104893       0.07702514      -0.22246244       0.10530455
H        8.16514390      17.31740628       9.98185728       0.42216458      -0.04579985       0.33503761       0.14841102      -0.00180894       0.04946216
C       11.58550198      17.50229121      10.17692034       0.06719887       1.15967286      -1.09887948      -0.33662987       0.44507639       0.51138890
H       11.56319223      16.75066310      10.94495919       0.22837379      -0.34222810       0.50601428       0.21101499       0.19756523       0.32299193
H       11.73878528      18.55442479      10.55556108       0.16077639      -1.06147343      -0.04237231       0.17338846       0.04459684      -0.06572377
H       12.28222148      17.26272337       9.35155485       0.14891793       0.08779014       0.57100211      -0.12619119      -0.01957807      -0.09703384
H       10.18102133      18.34078179       8.92881485      -0.42346797       0.28568338      -0.01870918      -0.01079158       0.18352369       0.01497583
H       10.08642159      16.68463674       8.87634526       0.58478376       0.81284698       0.41713718      -0.13161653      -0.50462594       0.23081013
N       16.72166865      23.94085642       2.37721366       3.01381125      -0.05345522      -0.88451075      -0.14711927      -0.23542231       0.08111184
C       16.79365738      22.56661761       2.93014239       0.10249935      -0.20521891       1.51684923      -0.21301557       0.21645043      -0.29205686
H       16.04577339      22.50226173       3.75837410       0.19569298      -0.10178147      -0.66710255       0.17771428       0.12958017       0.00949459
H       17.75683801      22.37318380       3.40803676       0.33236761       0.28510625       0.01024848      -0.04610961      -0.03182016      -0.10501929
H       16.65724747      21.75410982       2.21798574      -0.30595766       0.22477309      -0.46021432      -0.29131630       0.17897489      -0.02187944
C       16.69117867      25.01484709       3.45954587      -1.22398170      -1.92395827      -1.85568917      -0.42306663       1.01440853      -0.20827576
H       17.65356703      25.18607899       3.84753159       1.29798195       0.20967105       0.49263472      -0.33973039       0.07247798       0.22992356
H       16.01134373      24.56544753       4.13191280      -0.64310964      -0.14184800       1.45683809      -0.03892807      -0.15959954       0.14766165
H       16.20823169      25.82642177       2.99115493      -0.28771274       1.49696365      -0.31388795      -0.21395861      -0.04947908      -0.14002346
H       15.95972000      23.91065037       1.72204012      -1.58427018       0.64566694      -0.45157511      -0.12218245       0.12813283      -0.09102387
H       17.54352172      24.16970338       1.67398568      -0.84379087      -0.61514248       1.26962329       0.03732475       0.04204351       0.05564363
Pb       7.29210223      20.39554989       6.90669224       0.25448763       0.03658845       0.12815725       0.89947618       0.23393599      -1.08640243
Pb      14.14073706      20.73760096       6.90453883      -0.32567616      -0.10840896      -0.22661812      -1.79449104       2.05119516      -0.44243924
Pb       6.45876271      20.26233628       0.30867237       0.12635385       0.09164549      -0.13806997       0.87172539      -0.55860698      -7.69032915
Pb      13.41612605      20.00466730      -0.25180713      -0.07894464       0.06290088      -0.07896639       0.14406018      -0.98501997      -1.41721954
I       10.53767632      20.62016852       6.77277759      -0.25837553      -0.07914277       0.10271123       3.95670713      -0.46914196       2.39255188
I       17.07863715      20.13120098       6.42349790       0.13673836       0.03356488      -0.04363615      -0.89679367       2.16934218       0.15815694
I       13.41773722      16.20273249       6.40771604      -0.28091753       0.34068677      -0.02305223       1.40214879       0.35859236      -0.00295666
I       13.89746412      23.74046955       6.96962129       0.04894717       0.20093393      -0.03077699       0.90657366      -1.34888291      -0.31570249
I       16.35229947      19.74166391       0.02152362       0.18138543      -0.07291182       0.01415789       2.19701426      -2.10611291      -0.70144679
I       10.50998165      19.83512550      13.33688561      -0.10003288      -0.01634372       0.04660444       1.11015225      -1.47719938      -2.64540725
I       14.04187170      23.57159127      12.89938366       0.02395987       0.25209176       0.03897568       0.41951106       0.38586704      -3.36753471
I       12.82463816      16.97202415       0.45801939       0.17786264      -0.03059789      -0.10246942       1.01663510       1.16694758      -3.57544523
I       20.15902930      19.63612531       9.98497372      -0.02477506      -0.03833022       0.16900901       3.59493430      -0.28876079      -0.17480665
I        6.51221811      20.23957270       4.01894640      -0.14930044      -0.27062829      -0.46134238      -0.40567636      -0.64354570      -0.50510373
I       13.37015952      20.53241792       3.85983787       0.03379438      -0.00463199      -0.13875281      -2.66581238       1.06230405       2.12734571
I       13.94923801      20.51593786      10.01963149       0.13172650      -0.06837271       0.29276526       1.81205157       1.94795511       2.37443702
N       16.79752804      16.26728573      16.26635501      -0.86061395       1.70327144      -1.89855886      -0.20748992       0.32941314      -0.19405174
C       17.69083022      17.39334673      15.68021340      -1.50097668      -0.04464656      -0.19629871       0.41483355       0.47090006       0.14363013
H       18.20485943      17.12204376      14.73290974      -0.58568904      -0.19742226       0.40307254       0.05957240      -0.03152914       0.15211316
H       18.40048681      17.45885701      16.46266554       1.16628865       0.58055733       0.73655220       0.01410794      -0.04354919       0.09956034
H       17.11308117      18.36417864      15.56875233       0.42256312      -1.14386880       0.18491125       0.08143972       0.19374324      -0.00035630
C       16.63060696      16.33521622      17.74930244      -1.07842419       0.05511526      -0.45500920      -0.25260252      -0.02900941      -0.49347608
H       16.09238280      15.41343526      17.90998157      -0.01981331      -0.65956089       0.92656668      -0.21761401      -0.01183921      -0.14027577
H       15.86872033      17.12326719      18.01369748       1.08380938      -0.17696968      -0.19150329       0.21351495       0.01206176      -0.24237999
H       17.60951958      16.38476901      18.24255943      -0.25507831       0.15548524      -0.01502763       0.16230915       0.17357881       0.20889631