640
Lattice="26.174195896193044 -0.21291130619254475 -0.03413060700925466 -0.14701279576682322 26.23782361176294 -0.19142390215241326 0.04242144766885345 -0.17898430266773313 26.113997928328043" Properties=species:S:1:pos:R:3:forces:R:3:momenta:R:3 energy=-2585.0146484375 stress="0.0005727467942051591 -8.397631609113888e-05 -0.0007016654126346111 -8.397631609113888e-05 0.0005632726824842393 -0.0002514207735657692 -0.0007016654126346111 -0.0002514207735657692 -0.000426841521402821" pbc="T T T"
Cs       8.96685579      10.25782683       3.14384253       0.01857795      -0.16264389       0.02862653       3.04796768      -1.91914704      -0.89462081
N        4.07026919      16.54783842       8.93620006      -0.41253451      -2.06752143      -0.12890989      -0.24539891       0.12768676       0.70772064
C        4.61192101      16.02745419      10.29964652      -1.09860650       1.55116547      -0.74466452      -0.08983644       0.82385412      -0.28134704
H        4.50507965      16.83869661      11.07640404       0.52096757      -0.52604737      -0.82470142       0.03670018      -0.17842524       0.05709072
H        5.60140985      15.64394201      10.06946668       0.42809271       0.04266279       0.42562864       0.21273347      -0.12785872       0.04455939
H        3.93071987      15.24530077      10.60014344      -0.21082172      -0.57448237       0.08085659      -0.05664458      -0.19792824       0.12516913
C        2.63244142      16.99542090       8.99603522       0.82788777      -1.84488239      -0.05292125      -0.60013469       0.99501448      -0.00400865
H        2.18780936      17.23609539       8.04685418       0.14126205       0.12587861      -0.71154783      -0.31192966       0.12712290      -0.11036556
H        2.59778728      17.80916688       9.64934703      -0.21442493       1.41168374       1.18631848      -0.01574418       0.20062859      -0.16754582
H        2.10568494      16.15028790       9.42872117      -0.32880032      -0.14919910       0.19451806       0.04431671       0.15599175      -0.18525281
H        4.16086373      15.69658456       8.26621336      -0.39379811       1.13915263       0.65930176       0.31815779       0.21686643       0.00988602
H        4.65816160      17.26030768       8.51078986       0.58755500       0.67502738      -0.00564353       0.07699693       0.00162678       0.08213370
N        4.01224377      10.19883105      10.12994452       0.69729987       0.84138811      -1.91062823      -0.42543698       0.80303455       0.16536788
C        4.00837895       8.78518332      10.52526890      -1.78445719      -0.22698604       1.63499372      -0.49440189      -0.31514269      -0.76019926
H        2.96012702       8.57370813      10.87099922       0.61866138       0.02286834      -0.24133047      -0.03848042      -0.07313233      -0.06518318
H        4.64193240       8.61798886      11.38089311       0.56081254      -0.05467967       0.39054986      -0.03543014      -0.14096801      -0.16238579
H        4.21993479       8.07643668       9.73940582       0.39039223       0.07887575      -0.72018044      -0.02736284       0.30087145       0.24403888
C        3.18016812      10.27291589       8.82527851       0.52714469       0.71443041       0.32895194      -0.59535493       0.12730714      -1.11055017
H        3.49886975       9.40720659       8.18442903      -0.24241984       0.83846755       0.30433391       0.20332758       0.01265528      -0.23630801
H        3.33301873      11.30185887       8.32712910      -0.31616823      -1.49665418       0.60930764      -0.15803954       0.29511250      -0.19076466
H        2.14530316      10.11639000       9.19997893       0.27880443       0.16396039      -0.59231349       0.00857099       0.06883341      -0.12747209
H        5.02570346      10.57968795       9.99187448      -1.12837477      -0.40093593       0.05597820       0.01899967       0.16793901       0.42828209
H        3.54443304      10.85937483      10.80668739       0.29216986      -0.50972743       0.12310195       0.12515400       0.16081246       0.06403640
N       10.92665827      16.17775045       2.76667430      -0.04032793      -0.50282990      -0.22950130      -0.57942551      -0.35483088      -0.21830917
C        9.73165261      15.68818332       2.05250303       0.24841023      -2.93686515       1.70773311      -0.35734427      -0.45157056      -0.48958241
H        9.90761953      14.61601741       1.77000100      -0.05129272       0.96416515      -0.32495428      -0.08927532       0.08107290       0.08262633
H        9.48194097      16.33028649       1.27042420      -0.49625783       1.10623278      -1.47339633      -0.07128708       0.14143608      -0.07939874
H        8.95164146      15.61617728       2.81556694      -0.30401053       0.20299174      -0.12771866       0.02405297      -0.00583035      -0.17530836
C       10.50556596      17.35607776       3.55495194       2.33838221       0.91494039       0.88267558      -0.05389869       0.73292206      -0.24059621
H       10.13463838      17.10509971       4.54488259       0.23215304      -0.43713296       0.38357367      -0.22246299      -0.32148198       0.07408195
H        9.67276446      17.80474609       3.06424167      -0.56078309       0.62507713      -0.75893120      -0.13788776       0.00083763      -0.11827147
H       11.41369836      18.07273449       3.59868159      -1.44794530      -0.82330953       0.20065877      -0.08093167      -0.04502202      -0.26498575
H       11.58609138      16.52497908       2.04373186       0.29838787      -0.05832315      -0.48820198       0.16035681       0.17135174      -0.05385705
H       11.41798106      15.32314630       3.20045636      -0.53433382       0.98533391       0.29760508       0.27656954      -0.07085989      -0.41076979
Pb      -0.25273832      13.19438590       6.72555033       0.04476271       0.07304370      -0.00583282       0.38726885       2.62676783      -0.06105966
Pb       6.27046099      12.90834905       6.91682254       0.19536447       0.31486063       0.02956437      -0.80694664       2.91803258       0.64924960
Pb      -0.17066412      12.84723104      -0.03641970      -0.05564596       0.11566673       0.19564411       3.09405230       0.01256060      -3.24939307
Pb       6.44910848      12.83511003      -0.27313339       0.12330126       0.02190421       0.13091051      -0.86072142       1.33223868      -1.28858145
I        3.25628734      13.86634913       6.42621548       0.00816918       0.03462806      -0.00405620       1.27929853       0.06038080       3.31444092
I        9.58283235      12.36607671       6.47649543      -0.00099046      -0.00913906       0.09608628       0.19341519       1.30282942       1.92640710
I        6.10510762       9.97818060       6.30513311       0.04145325      -0.37479994      -0.10193380       2.44087175      -2.71893651      -1.82622269
I        7.19811703      16.09003613       6.68641223      -0.01201202      -0.05110819      -0.05201564      -0.87545701       1.70562909       0.70867304
I        9.62039362      12.20334037      -0.35224122       0.24443021       0.02147578      -0.02607823       0.49079418      -0.16254296       2.45825933
I        2.91845902      12.74809777      12.65334122       0.24147000       0.12734296      -0.01132676      -3.67819927      -3.05721338       0.08516672
I        7.56443094      15.65987432      12.61738531      -0.01270445       0.10036463       0.13127589       0.06658481       1.93445271      -1.51394991
I        6.23147354       9.37543061       0.30302711       0.14542101       0.27556705      -0.07386675       0.50903401       0.46646798       2.15508333
I       12.53755781      13.22516865       9.82403872      -0.03523637      -0.06318249      -0.40940118      -1.41416897      -3.74552833      -3.87585746
I       -0.60522470      13.51526697       3.50496600       0.09073002      -0.04922277      -0.19464275      -0.42192773       0.85953568       0.59617471
I        6.66959399      13.20917938       2.84872179      -0.11223200       0.04851036       0.11093623       1.95554254       1.49569450      -3.92579872
I        7.08594898      12.15841828      10.10385108      -0.07537630      -0.05643745      -0.49206919      -2.96915351       2.02119035      -1.55871130
Cs       9.71980781       9.60259813      16.55602358      -0.10474804      -0.01973207      -0.06996490       1.11696981       2.02773830      -2.59530158
Cs       2.96493968      16.07444038      22.84648852       0.01258987       0.01981089       0.06361096      -1.90966455       0.06414287      -0.24975453
Cs       3.62201261       9.53274447      23.50146539      -0.12069383       0.05804673      -0.00161431      -0.19077248       2.44609055       0.17478787
N        8.86098316      16.38296851      15.90116179      -0.84273603       2.25844583       0.94572586      -0.66803505      -0.12703823       0.29805112
C        8.31181363      15.41838821      16.86075137      -1.37941864       0.21604411       0.86097255       0.37731460       0.35893638      -0.37111902
H        8.87956629      14.49175540      16.76221812       0.05402265      -0.22525437       0.12426209       0.27617644       0.00640432       0.12464163
H        7.20373750      15.23770675      16.70923429       1.05296443       0.10588422      -0.25270945       0.20399980      -0.14481959      -0.08495631
H        8.38486281      15.85073506      17.88318714       0.26312950      -0.24436434      -0.36120073      -0.00592592       0.21733029      -0.11122274
C       10.24685668      16.73211858      16.19600126       0.94086142       0.64024080       1.03782471       0.96330901      -0.17080459       0.48083763
H       10.71346174      17.55115952      15.58962267      -0.89367508      -0.19211298       0.45254844      -0.19823080      -0.06935832       0.05969299
H       10.88315417      15.88503760      15.97337186       0.15725013      -0.66019755       0.15278747      -0.12360286       0.23043166      -0.23589233
H       10.24919706      16.93055333      17.31159918       0.43646603       0.07800714      -1.09136545      -0.03600669       0.10965680       0.07361304
H        8.27639694      17.30444812      15.87499085       0.40762621      -0.99846482       0.21210054       0.20142041      -0.13832835      -0.38484817
H        8.79021560      16.01359618      14.98723246      -0.23528224      -0.83392743      -2.13507466      -0.08842288      -0.35730695       0.23781601
Pb      -0.06135006      12.77548351      20.00322179       0.09394875       0.37802651      -0.33342918       3.32988514       1.22914542       1.70749310
Pb       6.48864636      12.50650771      19.87788633      -0.09469588       0.08585663      -0.50655569      -2.27712486      -0.29511856       1.78061078
Pb      -0.39499418      12.87807839      13.17534561       0.00316099       0.02090363      -0.04638896      -2.04584109      -0.84055382      -2.78762860
Pb       6.25397883      12.37440814      12.95880622       0.10551045       0.27885639       0.36291444      -0.81389299      -2.35599595      -1.79525214
I        3.19645588      13.25398438      20.00128895       0.12689294      -0.38362350       0.39920552      -1.65645555       1.30135978       0.89902415
I       10.05984268      12.08689296      19.59864379      -0.17565330       0.14526081      -0.15072272      -0.63200677      -0.95442225       2.34685057
I        6.86483199       9.16756062      19.36312109      -0.07924475      -0.07316879       0.04465716       1.63035409       1.09048358      -6.36257975
I        6.69135791      15.92404127      20.81462581      -0.07170099      -0.08204954      -0.19701914       0.19813170      -2.03638163       2.27883819
I        9.64644433      11.70780882      13.13406628      -0.07027799       0.07057546       0.00523836      -1.59927404      -1.35740684      -0.77279179
I        3.44606284      12.82058983      25.90688032      -0.50884433      -0.06828074      -0.17340031       0.00616048       0.39456410      -0.96981134
I        5.86662053      15.90467033      25.66499386       0.20859521       0.10148902      -0.02819569       1.20853551       0.47721573       1.01054798
I        6.20765339       9.45801246      13.77275155      -0.09012218      -0.32088933      -0.02466526      -1.09878746      -2.01428976      -1.28882245
I       12.34786380      13.42132410      22.40162161       0.11776173      -0.07465508       0.17422364       1.78340401      -1.85617720      -2.02901129
I       -0.90355743      13.09787784      16.42511698       0.07559619      -0.06723067      -0.08637936      -3.43026304      -0.41371992      -3.76067084
I        6.57830732      12.23317866      16.57383154      -0.07559958       0.02486159      -0.03645606       0.84984440       1.51370502       4.43773665
I        7.13130911      11.79508330      22.61872166      -0.08847902      -0.06408803       0.48761661      -2.76036912      -1.41571567      -3.36462010
N       15.81777021      16.77753546       3.16192627       0.12557289       0.63268162       1.85446548       0.78557695       0.23818315       1.01972310
C       14.67829701      15.78427252       3.15827231       0.60077455       0.58306037      -0.37585152       0.15834200      -0.55321303       0.24046579
H       14.49934503      15.45055073       4.17647062       0.24311217      -0.32159349       0.35605489      -0.49789238       0.14968209       0.11868125
H       14.94966899      14.95895323       2.48210166      -0.23984093       0.11857556       0.05288244       0.17458207       0.21505398       0.02949265
H       13.78265713      16.30765945       2.86467837      -0.41009190       0.20157286      -0.48785937       0.37305346       0.07552210      -0.01363523
C       17.09348782      16.05657332       3.44011334      -1.62419728      -1.27068148      -0.19565448      -0.68717495      -0.18739260       0.31910932
H       17.93517986      16.69357103       3.40951546       0.97528083       0.82984754       0.04588611       0.13874452       0.04527422      -0.03402802
H       17.12447825      15.28914522       2.65316026       0.43686142      -0.00884542       0.14410043       0.18284642       0.11803332       0.00968668
H       16.91235433      15.57853172       4.39513144       0.46737716      -0.25416324       0.39923771       0.09429672       0.15654686       0.16106623
H       15.62108255      17.49366538       3.98350383       0.40279631      -0.88281858      -1.94170593      -0.06878154      -0.08534998       0.09488219
H       16.01896268      17.28516577       2.25552184      -0.89805706       0.12816027       0.26204930      -0.08969794      -0.30610657       0.29706212
Cs       9.85660791      22.77035327       9.92190130      -0.00114249       0.03321515      -0.11044185      -2.16451772      -0.41040707      -2.50590320
Cs      10.02691069      16.46928482       9.55820856      -0.23554005       0.00004409       0.11643423       0.49730913      -2.05346061       1.80515988
Cs      16.71552331      22.33103221       3.19279049      -0.04197930       0.15819793      -0.06579141      -5.03523287      -2.02874447      -2.60666885
Pb       6.51409019      19.65829327       6.32158080      -0.01925920      -0.04945499       0.12466950      -3.15579179       2.16236128      -0.10110020
Pb      12.88864553      19.59325972       6.28881236       0.07741869       0.04338427       0.35621690      -2.54741319      -0.01076156       0.89352710
Pb       5.96440685      19.56975560       0.06012146       0.14502143      -0.04618336      -0.13403478      -1.48677063      -3.17011248       0.44360461
Pb      13.32036483      19.76538696       0.03394690      -0.58107440       0.00515970      -0.21998892       1.02311488      -2.60467846       0.09571247
I        9.65252247      20.12460878       7.28433121       0.28784544      -0.06875918      -0.24456253       3.61509216       0.39608304       3.58975184
I       16.29553813      18.87719616       7.13399629       0.06378751       0.37904934      -0.33511423       0.58503078      -0.27809005       0.17080344
I       12.52148368      16.22045535       6.89795174       0.00416110      -0.14522288      -0.23878294       1.01632211      -0.38785789      -0.56515870
I       13.35970434      22.63714604       6.61500123       0.15574963       0.06070882       0.08706910      -1.56976822      -3.07950400       0.59681385
I       16.14677388      18.91245550       0.47661345       0.50045094      -0.04969031      -0.22891447       1.40586466      -3.36348077       1.86609094
I        9.40650153      19.84556688      12.75376496       0.77195465       0.08906148       0.03379847      -0.43549234       3.06360867      -1.58223587
I       13.17863931      22.57063007      12.48019418       0.04189453      -0.47817811      -0.14044240      -1.01324483      -0.60861673      -0.40576388
I       12.41541089      16.56796467      -0.31300891       0.14506084      -0.13534658      -0.08876660      -0.68833941       0.47685089      -2.50561441
I       19.33841585      19.90817309       9.73451939       0.21370406       0.15560588      -0.32786631      -0.09089586      -2.55486843      -0.72733658
I        6.63079140      19.09734047       3.22493025      -0.03520577      -0.10183457      -0.15126097       0.31746509       0.85429581      -1.69751586
I       13.99965241      19.78113618       3.44146452      -0.20201455       0.05160376       0.04925521      -0.31539213       1.16419143       2.75705857
I       12.91898447      19.14367916       9.95951196      -0.09368388       0.05894976      -0.04913247      -2.24473871       0.76701721       0.90280387
N       16.88465351      16.32878022      16.35020988      -1.62047025      -0.44630897       1.69416554       0.36244831       0.57417937       0.51756249
C       16.40636887      17.63718429      15.86129622       1.49292973      -0.34837162       1.66069944       0.38869705      -0.36228497       0.16489439
H       16.35423470      18.37924746      16.64773670      -0.32399786       0.00740647       0.51882414      -0.06272895       0.01938110      -0.03686826
H       15.52640970      17.51979597      15.34252843      -2.06756185      -0.35988874      -1.28233027      -0.15111530      -0.25080379       0.23987209
H       17.21430622      17.89482186      15.28315071       1.62483346       1.42150790      -2.05852414      -0.27011903      -0.29263824      -0.24698756
C       15.72119470      15.44848407      16.69762786      -0.87226782       0.75470228       1.22674010      -1.97183668      -0.51771127      -0.74542057
H       15.03813792      15.32072228      15.85569141       0.24546036       0.14606540      -0.43173493      -0.06699141      -0.16312227      -0.21585960
H       15.09945943      15.97861078      17.49923585       0.89670272      -0.76706766      -0.64472972      -0.14024481      -0.02550775       0.19021266
H       16.09725769      14.47095882      16.98829979       0.07938421      -0.07186305       0.28800116      -0.09826733      -0.12572118      -0.05117787
H       17.56001505      16.45707072      17.12565411      -0.35000993       0.08782774       0.39541521       0.10518186      -0.07497672      -0.10570446
H       17.43080035      15.80468863      15.71049430       0.88804622      -0.51480363      -1.68315167      -0.18260491       0.24249001       0.04353070
N        9.67582557      22.40834571      23.84598186       0.62124383       1.31348316      -0.96947534       0.62515017      -0.39756416      -0.79853768
C       10.78396487      22.79364926      22.85629733      -0.20054024      -0.24077269       0.93151032       0.88394224       0.40081309      -0.21809675
H       10.95970151      22.02467204      22.11607813      -0.31322163      -0.57240957      -0.22753491       0.26040256      -0.13596034       0.23864087
H       11.72760320      22.93703050      23.40634278      -0.27309351       0.12018771       0.09755017      -0.06277920       0.09548162       0.05699443
H       10.46664982      23.70377805      22.36808262      -0.10363382       0.49713121      -0.16058572       0.10912198       0.09079942       0.25354958
C        8.31987355      22.27450119      23.25239252       0.91996985      -1.45013313       0.20511626       0.03506168       0.59778421       0.28661378
H        7.62012902      21.87464863      24.01259807       0.29331681       0.14436940      -0.23566641       0.35302441       0.11589485      -0.04180443
H        8.48330007      21.53054399      22.44909787      -0.58599736       0.55501712      -0.05471061       0.03004399       0.15859655       0.06685324
H        8.03036123      23.26031810      22.97013962      -0.49310396       0.67136050      -0.70162238      -0.15831190       0.15684114      -0.33440032
H        9.64468976      23.14851083      24.54191958       0.03832289       0.60469616       0.44898902       0.06486668       0.00738215      -0.13260065
H        9.93126049      21.58455198      24.35567431       0.37503664      -1.55958128       0.63863882       0.04888675      -0.00904517      -0.16655589
Cs       9.95800999      16.37141915      22.49209549       0.12295565       0.12122169       0.08647255       2.30652338      -0.09717552      -1.25079004
Cs      15.91400263      22.58519202      16.35001220       0.38125972      -0.31956693       0.05934240       1.23714401       1.45215765       1.70555620
Pb       6.35809225      18.85344741      19.73571523       0.12725956       0.21037339       0.27454663      -4.78569148       2.10968996       2.91909166
Pb      13.16249411      19.08409845      19.45065470      -0.33505339       0.11369582       0.07217678       1.53917918      -0.29678849       0.36858399
Pb       6.58158594      19.06718050      13.01541984      -0.41641245      -0.14510116      -0.38387620      -0.93090321       0.22415989       2.50378981
Pb      12.75718381      19.41578221      13.00326298       0.06438507      -0.07122235       0.03907119      -0.94715662      -0.81151999       1.61809857
I        9.64949032      19.74961901      20.06693125      -0.09811649      -0.24435481      -0.12431743       0.64574712       1.58460918       0.12277379
I       16.24279372      19.27909737      19.25354593       0.00144666       0.03347374       0.15861854      -2.53107521       0.99670955       0.06205219
I       12.59223251      15.98208983      18.96906731       0.00141776      -0.04269059       0.26078317       2.29003220       0.71740408       0.46483496
I       13.62431701      22.50582074      19.67145504       0.02951450      -0.13195074       0.02690018      -2.67812322       1.07219919      -1.98493352
I       16.21382534      19.50261114      12.29025827      -0.38528792      -0.00638995       0.04943125      -1.24554609      -3.54334537       1.40237795
I        9.86955730      19.54470826      26.08056017      -0.03660179       0.05658740      -0.01765368       2.69354808       1.05915982      -0.09479189
I       14.11050169      22.82678307      26.37523147      -0.00084765      -0.03031761      -0.19714543      -0.43341242       1.32544224       2.11923692
I       12.85164197      15.83512612      13.21433668      -0.03339622       0.32366042      -0.05434225       0.50406528      -3.23262275       2.19684832
I       18.60840894      19.47719380      23.20716968       0.01992122       0.04320986      -0.46754512       2.85667420       0.51797361       3.14086557
I        6.80965379      19.36611963      15.99141779       0.00043724       0.00682000       0.34906611       0.07665617      -0.77186811      -2.24949566
I       12.60230628      19.98550502      16.43806882       0.08459549       0.03337258      -0.13466487       1.49594125       0.31684111      -2.29305814
I       13.32561994      19.15813773      22.93577305       0.05942958       0.01895135      -0.08061053      -1.19540359       0.81899268       0.14217364
N        8.73172687      22.93560571       3.68116838       1.85715290      -2.09612702      -0.03390443       0.12825262      -0.45791926       0.11787121
C       10.18082624      22.27173077       3.54327072      -1.80499858       1.01971691      -1.39955163      -0.75129822      -0.25017610       0.52037988
H       10.78121661      23.02605608       3.03020060       0.09071919      -0.01380427      -0.08625043      -0.03893073       0.02687622       0.08167795
H       10.08738257      21.36545952       2.89799058      -0.04646490       0.51359856       0.59669418       0.21188356       0.13924577       0.43167382
H       10.55294829      22.11216582       4.52146525       0.37502938      -0.40439063       1.10120830      -0.09457283       0.01896249      -0.18282480
C        7.98238298      22.82611410       2.42832276      -1.60492451       0.48488436       0.49124552      -0.53545305       0.41894005       0.18472130
H        8.61939614      23.18613927       1.63255085      -0.14622835       0.57844009      -0.39503084      -0.15650331      -0.15341664      -0.12703839
H        7.04245323      23.37178194       2.69763101       0.52046745       0.19811210      -1.11066534       0.08151114      -0.06274481      -0.32274672
H        7.62150564      21.83368708       2.18778264       0.44331993      -0.71935849       0.20149983      -0.00979023      -0.17136894       0.15794371
H        8.77042732      23.94840506       3.91792499       0.24008657      -0.35527442       0.50722424       0.10359355       0.19609926      -0.00637567
H        8.22899361      22.37600213       4.41120299       0.17005843       0.75892593       0.02357769      -0.00620121       0.10751556      -0.03417425
N        3.01855597       2.95034605      10.43720156       1.95664164      -0.74557022       1.04167348      -0.31974758      -0.11858448      -0.72480155
C        2.14107166       3.39101364       9.33984242      -0.26631307      -0.40268061      -0.59178517      -0.08746236       0.48224988       0.50984375
H        2.13457361       2.63193265       8.48164070       0.49699123       0.96468984       0.88722068       0.12193304       0.03391661      -0.06009909
H        2.55454677       4.36916505       9.10745053      -0.24347041       0.32181726      -0.91480582       0.03403355       0.02445563      -0.17555947
H        1.09086788       3.47460360       9.61789944      -0.15611249       0.16610876       0.49967171       0.17025958      -0.13334695       0.08450688
C        4.35578880       2.37185613       9.82763255      -2.43239649       0.75177487       0.00648776       0.14060635       0.26286936      -0.68891428
H        3.93564012       1.43809647       9.53356874       0.42634379      -1.32997895      -0.69217980      -0.21845532      -0.09373305      -0.03256387
H        5.19007504       2.24855740      10.48175983       0.48247264       0.30967885       0.71803738       0.00016744      -0.37207679       0.00301742
H        4.48701181       2.94576353       8.92998195       0.57257618       0.48674539      -0.29839426      -0.12680606      -0.20395743       0.13910254
H        2.67212023       2.12567024      10.93095407      -0.72965481      -0.31941828       0.30969878      -0.02038313      -0.14589559      -0.04102575
H        3.21697579       3.62136384      11.22870676      -0.24440016       0.02400061      -0.88583281       0.09069968       0.28515471       0.08423384
N        2.52544544      22.33047447       9.83997487      -0.12296608       0.70514339      -0.51187268       0.30022414       0.69187644       1.24496410
C        3.45833898      21.21294424       9.72576695      -1.45286835      -2.38939635      -3.04477381       0.39138208       0.54778861      -1.01674173
H        4.02419442      21.22561185       8.72416608      -1.14220862      -0.06162856       0.99974082      -0.03004049      -0.02902261      -0.14970970
H        2.89666960      20.23590569       9.91165613       0.73611112       1.18432039      -0.44118670       0.09749455       0.12455541      -0.30238043
H        4.18238583      21.33836109      10.42753383       2.08680905       0.24734696       2.37497172       0.00586739      -0.08982963      -0.00844317
C        3.27704005      23.59910969       9.64677091       0.27816753       0.44407201       0.75023481      -0.33607250       0.17663988       0.43132671
H        4.29261182      23.50773930      10.03061861       0.01098850      -0.30399027       0.56019150      -0.00024307      -0.15146681       0.03830005
H        2.77748137      24.40085973      10.20810691      -0.04111703       0.03345636      -0.49357913      -0.30646067      -0.10478172      -0.11098462
H        3.44886094      23.78368258       8.60213302      -0.51032845       0.23815698      -0.79935219      -0.09430704       0.04811807       0.02239149
H        2.09720367      22.28843841      10.77598623      -0.21897407       0.09556257       0.01888192      -0.01672090       0.18431867       0.04905646
H        1.75943314      22.30875983       9.12802581       0.19437185      -0.27125200       0.35030889       0.02295026       0.03285597       0.08013856
Cs       9.98422244       3.20882303       2.92251528      -0.14651804      -0.13906608       0.01703868      -6.08156551       0.67699538      -0.39450497
Pb       0.33202492      -0.00050443       6.53493065      -0.12805874      -0.08132741       0.13887682      -3.10944164      -0.27236799      -3.80114104
Pb       6.83899911      -0.09193277       6.47802728      -0.02419891      -0.16535215      -0.16391213       0.16118039      -0.33172123       2.31645508
Pb      -0.32188402       0.21588023       0.39094743       0.50781310      -0.23481518      -0.22056117       0.74842027       0.07623369       2.28139704
Pb       6.75208633      -0.34159283      -0.14716732      -0.12194703       0.17244875      -0.02725873      -0.47927374      -0.46911357       3.68375282
I        3.38663124       0.05144013       6.70133826       0.08488508       0.12445450      -0.10541925       1.11091223       0.35922705       0.21103157