960
Lattice="26.671277349693533 -0.15383898471797033 0.08764763391987251 -0.25131172260713286 27.76970584970993 0.11302361738642766 0.05510945026497217 0.01189704488546123 26.814302939058745" Properties=species:S:1:pos:R:3:forces:R:3:momenta:R:3 energy=-4269.037109375 stress="0.0012526704231277108 -0.00034831170341931283 0.000336095312377438 -0.00034831170341931283 0.0012970672687515619 0.00045572684030048555 0.000336095312377438 0.00045572684030048555 0.001545427250675857" pbc="T T T"
N        8.89081855       9.43254247       2.95857949       1.99052974      -0.85396397       0.66601955      -0.77031812       1.17543019       1.47475793
C        9.66176360       9.72462912       1.65526026      -1.07508612      -0.00872449       0.68710470       1.01457839      -0.35620654      -0.81270919
H        9.46400208      10.75845078       1.44535093      -0.24769292       0.80496238      -0.29044937      -0.25241632       0.10481909       0.10523299
H        9.32173249       9.11611833       0.79293886       0.16098883      -0.02269856       0.61869739       0.21176173       0.19196645      -0.25049179
H       10.71711649       9.66279218       1.87997081       0.44175736      -0.46637659       0.04104524      -0.10227197       0.05482520       0.28730431
C        9.25583659      10.33584161       4.11705805       0.22288091       0.75476717      -0.83414332       0.05071528      -0.60190007       0.09543154
H       10.34663833      10.57027155       3.96287493      -0.88021066      -0.18237768       0.58724117      -0.04964539      -0.11477562       0.26150379
H        9.01012586       9.80940682       5.06786744       0.29432994       0.47496580      -0.43267281      -0.19561404      -0.09956803      -0.03393152
H        8.65396900      11.27605750       3.97382918       0.51362620      -0.59703584       0.37422075       0.30754611       0.18164684       0.29926648
H        9.10027450       8.47878503       3.31337192       0.25906707      -0.01351750      -0.53577456       0.05302334      -0.12298014       0.00380334
H        7.89587394       9.39872868       2.89945000      -1.56672788       0.24864874      -0.85456806       0.11362394      -0.07686357       0.24648455
N        3.29981866      16.69823845       9.35946057      -0.16089503       0.73811213      -0.91236215       0.60718296       0.45584373      -1.04432258
C        4.43854485      17.16427790      10.19159626      -0.73248615      -2.36349619       0.93969242       0.00646455       0.28907765      -0.37190583
H        4.23261156      18.11793176      10.59324682      -0.18234731       1.42077891       0.26332022       0.13614505       0.08320594      -0.01499408
H        5.25748187      17.09987790       9.54112378       1.77397606       0.27637535      -0.67255240       0.03255701       0.19161075       0.14422760
H        4.55387746      16.43508451      11.04353052       0.00382921       0.52885174      -0.62994903      -0.12675212      -0.08994866       0.01990223
C        2.04711769      16.86749932      10.15085636       0.10337937      -0.40814597      -1.82705505      -0.05448621      -0.07654369      -0.20768608
H        1.14118899      16.61980216       9.59164338       0.09427012      -0.22596307      -0.02941460      -0.11497867       0.19187282      -0.18471112
H        2.03374189      17.87743834      10.43110685      -0.29175305       1.72439174       0.51720017       0.03093146       0.14979858      -0.13438449
H        2.22711577      16.29310521      11.00285438      -0.31066078      -1.21335594       1.65436448       0.25362023      -0.29616900      -0.15852001
H        3.47134819      15.73731227       9.03474002      -0.17324571      -0.46547725       0.20952482       0.05386860      -0.15405653      -0.08239255
H        3.30268191      17.26446601       8.46318801      -0.27046166       0.01327249       0.51669272      -0.01373132       0.09940442       0.01235708
N        3.54083932      10.37730145       9.38510502      -0.14356845      -1.02988388      -2.03446643       0.17512483       0.20824849      -0.21865262
C        3.99181140      10.99943594      10.60352871       0.55354750       0.15158992       1.04853207       0.10504155       0.04022253      -0.55128768
H        3.22484511      11.68417512      11.03121322       0.26024563      -0.33519584      -0.32998092      -0.02090651      -0.18360050      -0.17421346
H        4.92257764      11.52998204      10.39027045      -0.06233605       0.32167392       0.06101809      -0.30513680       0.10726825       0.03498975
H        4.24679311      10.21339727      11.32112360      -0.13731344      -0.06042089       0.16359490       0.15199368       0.12506559       0.05706879
C        2.40623309       9.42239209       9.54582887      -0.83749259       1.10404945       0.80713584      -0.03099456       0.27263686       0.46609212
H        2.74439695       8.46151045       9.89468740       0.49986346      -0.49516741       0.38059347       0.11752153      -0.08942448       0.22824040
H        1.90645113       9.24834011       8.57211217      -0.05518726       0.32143365       0.42205884      -0.03018893       0.16034354       0.09479110
H        1.77155887       9.90303856      10.35907711       0.18984972      -0.68060500      -1.10236715      -0.04831784       0.20383367      -0.03396117
H        4.35546413       9.83104990       8.87919934      -0.89272780       1.13286873       0.41152661      -0.16473372       0.05649321       0.16441565
H        3.19256105      11.16531355       8.73551193       0.55237140      -0.52617237       0.22915500       0.06951291       0.12630004      -0.22708977
N        9.62719076      16.48301480       3.68320943      -0.19771705      -0.00941867      -0.14997047       0.60316807      -0.37655462       0.97888222
C        8.48382094      17.42880910       3.32153956       0.71527558      -0.08748305       0.14502516       0.01814475       0.12622376      -0.32229042
H        7.54764920      16.85205328       3.35527802       0.22157745       0.07377797      -0.29129571      -0.37243116      -0.07812021      -0.11476613
H        8.71297131      17.88283024       2.34309052      -0.19877604      -0.09477898       0.29745377      -0.01488330      -0.09201144      -0.13352702
H        8.46701839      18.15011209       4.13376972      -0.04465398       0.43281577       0.02611396      -0.06433129       0.01910720       0.16082311
C       10.98012108      17.07618532       3.96924733       0.98421461      -0.35554014       1.81039470       0.82858460      -0.09214215       0.19562684
H       11.61438364      16.41025818       4.71726762      -1.23122093       0.85908624      -1.54837786       0.20853803      -0.25928331      -0.00152361
H       10.91562277      18.05391048       4.47718621      -0.51724921      -0.21052252      -0.03492264       0.32861435      -0.29526537       0.15032361
H       11.51971087      17.26634291       3.05047747       0.09745509      -0.25153116      -0.49233028       0.15074074       0.09384235      -0.05057934
H        9.71147505      15.79575615       2.91383361       0.02425398      -0.07149118       0.13985276       0.14122638       0.03894968       0.00196512
H        9.27118628      15.98145504       4.50912329       0.18314415      -0.25396335       0.14200431      -0.18728865      -0.32480415       0.09834465
Pb      -0.58039666      14.18385193       6.65211094      -0.18813442       0.05838191       0.26969366      -2.84677861       2.33552166      -0.00328368
Pb       6.31773498      13.54261606       6.88799272      -0.00452159       0.19819587       0.03596182       0.76306938      -1.72816819      -0.75242353
Pb      -0.31395313      13.80494931      -0.63759728       0.04067790      -0.16451174       0.21005097      -0.01459372      -0.04886790       2.62317935
Pb       6.35623275      14.20553439       0.06830807       0.02232189       0.01431663       0.08534130       2.35886277      -1.90696917       3.56347887
I        3.04654039      13.26067196       7.51286270       0.07233554       0.46587264       0.07002982      -0.57642791       0.92414710       1.06811289
I        9.43998406      13.40492895       6.65870933       0.32527285      -0.06823987       0.09109663      -4.57022108       0.42493365       0.74129914
I        6.11312450       9.80787069       7.11190870       0.09247983       0.49796226      -0.03415928       0.06928845       0.58733672       1.85675218
I        7.07140968      16.53259605       6.89196197      -0.12135946       0.03662117      -0.06219346       1.60389372       2.37193264      -1.41838197
I       10.16793770      14.21097401       0.20718627      -0.10789308      -0.09255201       0.06131133      -0.49204323       3.86094230       2.95969940
I        3.18046869      13.63938717      13.11861433      -0.06561691       0.14650789       0.13040742      -1.68479253       2.59140319       2.43002208
I        6.86594034      17.14652154      13.80424297       0.04971873       0.46079418      -0.06957031      -2.61064197      -0.40069326       1.79235796
I        6.24639995       9.87274884       0.27817243      -0.06714020      -0.00127218       0.06240331      -0.83155794      -0.53259574       3.07215904
I       12.98864678      14.04717190      10.16963914       0.03811693      -0.15681096       0.09019965      -1.77977441      -2.52821930      -1.91222568
I       -0.16293000      13.58655912       3.70708327      -0.08409312      -0.03300990      -0.16136924      -3.95334924       0.52943666      -0.94602103
I        6.52487533      14.02904846       3.29081950      -0.07205641      -0.16317657       0.08530681       0.31025258      -0.08997161       2.28446851
I        6.69877720      14.20003262      10.25277452       0.03855892      -0.17618192       0.00588338       0.79888200      -2.85672157       0.36723437
N       10.48555310      11.22531553      16.13204151      -0.84548361       0.20652000       0.56502269      -0.18484775      -0.11989732       0.91385388
C        9.49161446      11.63847170      17.18696164       2.94243616       0.43869045       1.90354503      -1.13804804      -0.05118110       0.28016343
H        9.93114995      12.54391968      17.68717360      -0.89497387      -0.27709210      -0.66445454       0.16391231       0.13780653      -0.09783118
H        9.52458489      10.88529192      18.02000417      -0.13638704       0.23442739      -0.72429059       0.09684274      -0.04358574      -0.03490493
H        8.53566906      11.69474871      16.74958448      -1.36642125       0.41352628      -0.44236476      -0.30099737      -0.11756395       0.08809561
C       10.28635437       9.79339914      16.03098727       0.06960072      -1.33127353      -2.30645091      -0.23300023      -0.40398833      -0.48205151
H        9.19233847       9.65307310      15.99673170       0.25949420      -0.38303172       0.29075367       0.13880476       0.01572122       0.03801186
H       10.79919034       9.20491151      16.79541603      -0.13778585       0.20235381       0.34014003       0.02745216       0.29447284      -0.00657873
H       10.64261552       9.40958801      15.03045857      -0.03702662       0.40390383       0.79532403      -0.23577253       0.00474601       0.03190543
H       11.44970360      11.54095768      16.38063615       0.08974492      -0.04503027       0.09292035       0.01890851       0.05980719       0.07431651
H       10.23379376      11.70782793      15.20855292       0.10011366      -0.05896995       0.37509480       0.14528306      -0.03782468      -0.01465288
N        3.18088946      18.37991078      23.67859364       0.63917361       0.06294378      -2.61430138       0.87488558      -0.34188877       1.03200183
C        4.51972786      17.65072715      23.64279585      -0.36103977       0.31774647      -0.42664737      -0.32914278      -0.17993129       0.18684656
H        4.81923690      17.30113237      22.65425202      -0.60830912       0.10987951      -0.60747707       0.00770932      -0.07715793      -0.11870965
H        4.50343415      16.75447285      24.24729337      -0.23966091      -0.16117761       0.67536314       0.18011584      -0.03743251      -0.11866890
H        5.31823933      18.32530119      23.90633736       0.27003809       0.43024208       0.66540373       0.29340030       0.10170992      -0.16902472
C        2.09415331      17.57495618      22.93946772      -0.13158917       2.52784039       1.98977442      -0.67115567       0.47526365      -0.39127099
H        1.91123168      16.85390811      23.67351940      -0.64806994      -1.94317061       0.73025679      -0.13912755      -0.02594278       0.10178485
H        2.54180957      17.21645227      22.07376829       0.51299663      -0.71348692      -1.82626255      -0.09041080      -0.16981976      -0.09640953
H        1.15821411      18.16934254      22.83579174       0.69417885      -0.08428627      -0.25619713      -0.09762641       0.04366287      -0.12800974
H        3.26929712      19.34892703      23.22994693       0.03901612      -0.92140992       0.18637165      -0.03802130      -0.08989465       0.10103607
H        2.87542251      18.54101984      24.62620287      -0.20022178       0.22169624       1.33966941      -0.13223476       0.01239075       0.18483710
N        2.13123312      10.43265107      23.03750183       2.28698169      -0.29288726       1.71660608      -0.15980829       0.58422100      -0.61065734
C        2.51691429       9.32837688      22.14118084      -0.18798920       0.43530785      -1.36892880       0.54102860       0.33561631       0.40375795
H        2.88867237       9.76637091      21.20890519       0.14126109       0.09871122       0.02690689       0.15791055       0.17750333      -0.05609201
H        1.65834755       8.71961596      21.88968692      -0.52862350      -0.16445679       0.01738008       0.32033862       0.18095318      -0.35041991
H        3.27779824       8.67227707      22.50799852       0.65197978      -0.23147717       0.93828989      -0.05202261       0.06395675      -0.16105842
C        3.31352700      11.05428005      23.90376083      -2.07188100       0.77605987      -1.41860344      -0.17178189      -0.38073799       1.35422266
H        3.84059888      11.72426438      23.22080344       0.17525671      -0.08304109      -0.02898034       0.02683689       0.12369765       0.21721114
H        3.95024617      10.29718092      24.29806379       0.32608804      -0.89966341       0.24442245      -0.25815334       0.11534801       0.33993606
H        2.81502524      11.64776838      24.68451021       0.20286626      -0.21914265      -0.05194898      -0.21434811      -0.13574269      -0.03782358
H        1.45804918      10.11803740      23.71168364      -0.67952895      -0.64099637       0.79914971       0.10746432       0.17415716       0.31164572
H        1.62140511      11.15140626      22.53760261      -0.32814669       1.01163127      -0.73536015      -0.07573906      -0.13628054       0.05805159
N        9.99837557      16.13866488      16.79705912       0.82475391       1.41879539      -1.78705822      -0.21356049       0.98329649      -0.84397512
C        9.90569442      17.60447222      16.46879521      -0.17397651       0.42029354      -1.38751339       0.16804513       0.77076211      -0.48558271
H        9.14565697      18.09111423      17.12885677       0.98446211      -0.16149053       0.05420455      -0.22512939       0.20688798       0.22287264
H        9.46306726      17.74486976      15.42092663       0.64521658      -0.46064385       1.11285077       0.26887640       0.04712228       0.09819611
H       10.98472602      17.96450131      16.45064638      -1.34858586       0.14098771       0.40238493      -0.28714069      -0.04511103       0.01677361
C       10.50124447      15.84822573      18.11913694       0.24939454       1.22913482       0.81850266      -0.24037316       0.20769680       0.11509641
H       11.24853301      15.12866187      17.99586278       1.38924703      -1.34756062       0.13948313      -0.11754396       0.07476594      -0.18544857
H        9.68705828      15.45061326      18.66626358      -0.88112096      -0.45054522       1.00656129      -0.03783441       0.04065734      -0.09714343
H       10.92214895      16.72868381      18.65214630      -0.29623785      -0.17737568      -0.57988739      -0.13831192      -0.03517757      -0.02970461
H       10.52453846      15.68714041      16.02621482       0.54703784       0.00479284       0.27815441       0.05658342      -0.03974170       0.10827462
H        9.12525001      15.69306732      16.67358430      -2.12234210      -0.58509644      -0.01902150       0.02854807      -0.15560003       0.32566154
Pb      -0.15952578      14.25433934      19.77992556       0.19443775       0.09191604       0.16204064      -3.53775762      -0.78019012       2.18865047
Pb       6.42268349      13.82960047      20.57882172       0.01929098       0.19901741      -0.05204176       3.02230553      -1.64822061       3.25672955
Pb      -0.03022937      13.71230459      13.42553288      -0.17477870       0.15632924      -0.16982215      -0.39345150       2.30048121      -3.21999345
Pb       6.48882040      14.27240016      13.47568693       0.03948812      -0.40156749      -0.03628232      -1.89354682       0.13580814      -1.02019414
I        3.20863021      13.98032603      20.27945734      -0.10420173       0.04563856      -0.02362846       0.98074773       1.57407427      -1.61436703
I        9.76171127      13.14237438      21.40892104       0.04970993      -0.01815122      -0.20210145      -0.89033040      -0.84839620       0.50145966
I        6.03115150      10.77558017      20.37795148      -0.03588914      -0.13550507      -0.09063874       1.81258845       1.69895984      -0.94534437
I        6.86153560      17.21559603      20.22068966       0.04551061       0.06932126       0.05948296       1.07188188      -0.54648091       4.86240740
I        9.58148729      13.49704878      13.87376826       0.00273079       0.13538934      -0.20402636       0.10240057      -1.45433241       2.01577022
I        3.33575148      13.93853033      26.78323798      -0.04456208       0.08140067       0.09443847       0.12646602      -1.19939192      -1.33106445
I        6.89724854      17.25684005      26.73160600      -0.05076871      -0.02643225      -0.06505839      -0.62449211      -0.76480334      -1.07315418
I        6.71611615       9.72583806      13.39001081       0.06561163       0.16539430      -0.02316743      -1.56007501      -1.23000435       1.46072446
I       13.58608711      13.25454748      24.05898566      -0.19038354       0.05145392      -0.40295210      -1.63422049       0.36001609       2.10432291
I        0.13547163      14.03121662      16.72759578       0.06853099      -0.13377292      -0.02856911       1.26757194      -0.17844755       0.90291796
I        6.43937488      14.06057762      17.14304516      -0.05620074       0.13307540      -0.03992659       2.49950507       3.46755669      -0.09414699
I        6.22628423      13.40852352      23.80464871       0.15303023       0.18784093      -0.08383330       0.47306970      -1.84784418       2.25389928
N       15.91418372      17.37900685       4.79267955       0.68149260      -1.16281055      -0.05578500       1.10738641       0.94965246      -0.20538855
C       15.58399788      16.13957581       3.97179042      -3.43062454       2.30603369      -0.35479714       1.00188250      -0.69243036       0.64530169
H       14.49530243      16.33752295       3.60529310       1.57891325      -0.21596576       0.34676810       0.00342672       0.05826072      -0.08554518
H       15.46871080      15.21814155       4.48667444       0.64636389      -0.83957037       0.94349014       0.14770511       0.16547179      -0.15167137
H       16.18736850      16.15718960       3.09983293       0.96409858      -0.28628265      -0.78032984       0.00872824       0.21461249      -0.07928026
C       15.79690593      18.61130350       3.96609021       1.72612997       0.42716354       0.01301140      -0.81118695       0.01657843       0.47441791
H       15.87010100      19.42942963       4.67803343      -0.57771948       0.51493643       0.12504287      -0.04052829      -0.05581752       0.21588100
H       14.89038769      18.62641656       3.34595053       0.15927040      -0.07812466       0.14978200       0.10014238      -0.01592237       0.15944799
H       16.75046830      18.75640125       3.39367440      -0.77017748      -0.48234664      -0.18983141      -0.13117509       0.04375111      -0.03655111
H       16.92905715      17.25021519       5.18850865      -1.26146676       0.44188580      -0.31238163       0.02892618      -0.27182877      -0.01240263
H       15.23687763      17.50316089       5.57923063       0.23745802      -0.63490628       0.01023585      -0.00716725      -0.05050320      -0.16334607
N        9.24861934      24.17010363       9.68485794      -1.92006515      -1.39241546      -1.94261297       0.33168765      -0.73943377       1.51871108
C       10.23716319      23.75980030      10.62122324       0.49670963       1.76739283       1.84293899       0.48952832       0.38987502      -0.14690682
H       10.27507105      24.57708322      11.37125161       0.12201992      -0.32397449      -0.04586094      -0.04302570      -0.07207108      -0.13017971
H       11.20891625      23.71655451      10.17990715       0.74713433      -0.52494551      -0.47067601      -0.02530882       0.09548566      -0.26474610
H        9.84685435      22.90854546      11.12123558       0.22384966      -1.25371166       0.47530774      -0.52776094       0.14677458      -0.37812267
C        9.46809660      25.46277413       9.03887827       0.54332014       1.11094789      -0.85989109       0.31099839       0.90813169       0.59775960
H       10.52472341      25.67376286       8.64239384      -1.05293675      -0.70982234       0.77193836      -0.10283019       0.08702674      -0.12714820
H        9.18800355      26.18272658       9.79597371       0.16687569       0.72578942       0.17693504      -0.27900461       0.03870373       0.07273761
H        8.77988604      25.57867965       8.18441660       0.03578061      -0.16280034       0.22140816       0.14368002       0.17350901       0.07834780
H        8.31092551      24.12617550      10.15162131       0.33202333       0.46180845      -0.06550345       0.06500481       0.13759922      -0.29901723
H        9.11422961      23.42642998       8.95945111       0.28178650       0.27466343      -0.01360661       0.09291363       0.05319280      -0.22059652
N       11.04432964      17.52815298      10.56859060      -1.55564008       0.25079838       1.08758344      -0.08668840       0.59992223      -0.20496199
C       10.16656930      16.55330502      11.39341744       1.55376804       0.02804243      -0.04178709      -0.26394650      -0.52531303       0.00177601
H       10.25987851      15.53357774      10.92634386       0.20067910       0.76606234       0.69027089       0.16121501      -0.04356390       0.09670915
H        9.15061413      16.85049102      11.32279027      -1.14536193       0.61410910      -0.36300170       0.07404754       0.06468206      -0.01067213
H       10.45069660      16.68734519      12.46941559       0.12357043      -0.60042375      -0.79537541      -0.34113632       0.15253989       0.12082517
C       10.32041894      18.09266349       9.40884111       0.08151704      -0.19712516      -0.68231708      -0.05960016       0.41183989      -0.56280151
H        9.86608492      17.21255187       8.90796305      -0.40067490       0.77745631       0.20238216      -0.24575541      -0.29392444      -0.17593801
H       11.03557442      18.53458940       8.70337170       0.11758040      -0.07153637       0.08724881      -0.11711491       0.06910504      -0.05118903
H        9.67788740      18.92705390       9.73910812      -0.31210408      -0.63634788      -0.09290472      -0.31462261      -0.31400479       0.05247351
H       11.82787218      17.03193399      10.17969362       1.01288198      -0.50816007       0.04449935       0.10775723       0.11756110       0.19324713
H       11.37135936      18.33539144      11.16164596       0.16483545      -0.54928290      -0.27829926      -0.03723798      -0.08573001       0.10865399
N       15.14709482      23.63769002       3.66856701      -0.00864647       0.67473237      -1.23320436       1.12103909       1.38996903      -0.20895296
C       15.12509301      25.13166340       3.83835472       0.50678120      -0.03621292       1.44769033      -0.10715562       0.46436767       0.21836384
H       16.13792941      25.44016896       4.22502519      -1.07845139      -0.27697027       0.09600555      -0.20247842       0.17521269       0.09808936
H       14.27570205      25.36789396       4.54884330       0.90493807       0.15141818      -0.59619560       0.10540202       0.01421172      -0.15357578
H       15.01342849      25.63774741       2.91088767      -0.27222676       0.30860144      -1.10154037       0.02804656       0.12859238      -0.13983188
C       16.51675628      23.14344487       3.53406293       2.15284454       0.93469992       1.17956074      -0.84931825      -0.40368335       1.03472654
H       16.72318452      22.05948861       3.43321874      -0.65122665       0.43477056      -0.12379898      -0.22666732       0.11663035      -0.08342153
H       17.05470044      23.54617313       4.43204822      -0.31611409      -0.76793050      -0.08732297       0.15240319       0.01554332       0.03892270
H       17.04994998      23.75534865       2.79288428      -0.37431739      -0.41280342      -0.67170153       0.08822534      -0.12610216      -0.12029270
H       14.60190813      23.38297534       2.81252226      -0.15158007       0.02386835       0.39983900       0.10449187       0.15495138      -0.15992785
H       14.68300187      23.29452613       4.51763862      -0.27962178      -0.75487353       0.37232064       0.05058469      -0.19652297       0.09886958
Pb       6.59624398      20.67565088       7.09603904      -0.02305891      -0.16725494       0.01167564       1.49342476      -0.68594646      -1.84564932
Pb      12.81374437      20.95657446       7.09398287       0.29735037       0.03334182       0.02859269      -1.09340309      -3.82174323       1.59554235
Pb       6.45370093      21.01790045       0.02841303      -0.11438700      -0.23934800      -0.27362950      -2.72304373      -0.60303429      -6.33131453
Pb      12.88691197      20.81064485       0.15170145       0.08042675       0.33854616       0.06831777       1.80904445      -1.68571113       0.31880446
I        9.74463492      20.96745314       6.91972577      -0.07492830       0.06209386      -0.13672796       0.05566813      -0.90670582      -1.03765340
I       16.02817603      21.26683886       7.21693833       0.26215033      -0.07727600      -0.01452238       0.10987180       1.18638424      -1.14734703
I       13.18614457      16.31542838       7.00360902       0.04114625       0.32899475       0.00057522      -1.78300728       1.48702066       1.21948733
I       13.43769608      23.92466886       6.58481331      -0.43909608       0.00883831       0.55731950       0.29611308       2.31570282       0.24804953
I       16.68271744      20.74713139       0.22265106      -0.17288213       0.01383218       0.04107363       2.50535234      -0.89000319      -0.93072263
I        9.68664147      21.31030071      13.46012441       0.11306652      -0.24577244       0.17992757      -1.22437023      -2.79465328      -1.68188686
I       13.50264145      24.34806777      14.31696510      -0.10824848      -0.06958689      -0.03586244       2.10313222      -3.16336072      -1.19311334
I       13.05709921      17.88433910       0.33527677      -0.07709624      -0.20931851      -0.07418492       0.85031337      -3.53590026       2.26870024
I       19.22935566      20.66691675      10.39696380       0.05230779       0.02417410       0.13316642       1.69493918       2.40931248      -1.36224990
I        6.77991557      21.29272375       2.96133966       0.12950651      -0.19484701       0.59352939       1.05634505      -1.49716551      -2.93433364
I       12.55997880      21.20636179       3.47092143      -0.10078065      -0.21446216      -0.04875326      -1.34659629      -1.22414331       0.39447787
I       12.78485570      20.52450422      10.40920480       0.17480790       0.02108189       0.01925662       2.97381983       2.02207006       0.41965656
N       16.80253312      16.66379495      16.61140418      -0.30359661      -0.53200002      -0.77667062       0.01678588      -1.16723549       0.63633796
C       17.69804496      17.13024731      17.74621963      -0.89592478       1.97949787      -0.97709339       0.18512651       0.31364183       0.51251007
H       17.78956250      16.35566276      18.47231392      -0.65732383      -0.57238074       1.03629671      -0.14375977      -0.05656443      -0.09167213
H       17.27081290      18.15304794      18.09130505       0.72100650      -1.76124235      -0.18242516      -0.27806941      -0.13748867       0.16381596
H       18.72188031      17.22623038      17.41141174       0.40183045       0.49980940      -0.58032630       0.17364548       0.34516890      -0.09851152
C       15.46682386      16.25899356      17.15018350       0.43670975      -1.72306996       1.71527875      -1.08256887      -0.19682769      -0.22234789
H       15.63872678      15.48518512      17.99250358       0.06734361       0.95757388      -1.07257196      -0.44811630      -0.11840174      -0.12279302
H       14.81931870      15.71217865      16.45184642       0.13020126       0.59015674      -0.33582126      -0.02701478      -0.16398963       0.01347501
H       15.02299824      17.09206329      17.67355216      -0.41540435       0.55443927      -0.19677863       0.19860137       0.09100017      -0.18271363