880
Lattice="27.070962956671774 0.22975227936148057 -0.0021661547211050485 0.22087120082107609 26.81707784494867 0.09117223885921111 -0.02922299817542792 0.11201932975488044 26.449006454077622" Properties=species:S:1:pos:R:3:forces:R:3:momenta:R:3 energy=-3848.44287109375 stress="-0.00010040096822194755 0.000445313606178388 -0.00044872931903228164 0.000445313606178388 0.0015351206529885533 -2.4088198188110255e-05 -0.00044872931903228164 -2.4088198188110255e-05 0.0006300525856204331" pbc="T T T"
N       10.29834116      10.30452040       4.25629339      -0.09604476       1.11603310      -0.23863433       0.22737909       0.30209228      -0.06571637
C       10.88351214      11.15649408       3.14988361       1.69854369       1.65244254       1.28072872      -1.00422298       0.77561097      -0.05205748
H       11.30231296      10.50490723       2.37877949       0.23991986      -0.07669430       0.16145136       0.12521450      -0.24893271       0.16121392
H       11.66818522      11.91119783       3.59331642      -1.11168416      -1.61298879      -0.72487950       0.12545909      -0.12312340       0.06162858
H       10.15320739      11.81704835       2.68481097      -0.65614376      -0.16160983       0.09039146      -0.20112533      -0.21484583       0.34087019
C        9.47680377       9.27029908       3.65424305      -0.08931815      -2.77778067       0.94489639      -0.14410932       0.07526848       0.03083984
H       10.17153325       8.51347099       3.23098981      -0.33628640       0.53438233      -0.50677876      -0.22129689      -0.24516914       0.44946177
H        8.75890907       9.69833123       2.91846024       0.41829866      -0.33287473       0.53648827       0.32733890       0.12613605      -0.06006973
H        9.03465011       8.64864413       4.51394736      -0.13021648       1.10369037      -1.14545091       0.08759741      -0.00776529      -0.07795189
H        9.60883046      10.86238365       4.78973747       0.64403569       0.41058570       0.36786484       0.14052872       0.08510168       0.06088406
H       11.02895480       9.91789085       4.93182712      -0.48973313       0.42227904      -0.57089015      -0.11546782      -0.12730398      -0.10396560
N        3.17653005      17.28181268       8.68175550       0.15175122       1.36587712      -0.18415519      -0.56310096      -0.49958658      -0.03272354
C        1.99902255      16.92251246       9.45989565      -0.83475201      -0.91166324       0.03924525       0.21693951      -0.02970536       0.86620184
H        1.43332576      16.17397962       8.90603891      -0.10821465      -0.23249546      -0.07081412       0.09483082       0.05635485      -0.06439808
H        1.34940902      17.78129513       9.56549354      -0.16169621       0.47568517       0.38542222       0.13341039       0.26355692       0.16495039
H        2.31079949      16.48194232      10.42427998      -0.08382330       0.27809682      -0.26406229       0.37474832       0.11168864      -0.38674498
C        4.09322785      18.04220695       9.58760477       0.96733291      -0.16838406      -1.03337175       0.40075205      -1.10675981      -0.46625735
H        3.61464465      18.82369969      10.18886488      -0.42401895       0.06411917      -0.53093695      -0.12720694       0.05040508       0.06789280
H        4.96984684      18.41125375       9.02578681      -0.41194206       0.04514504       0.10006519      -0.00866734      -0.16545625       0.02929487
H        4.42559248      17.32282484      10.27982073       0.67354143      -1.00042402       1.19114862       0.04705155      -0.02999254      -0.03328964
H        2.99183542      17.93588911       7.89177807      -0.37708173      -0.00159296      -0.04179376       0.04855842       0.00082869      -0.04369503
H        3.53604224      16.43978200       8.20275023       0.65944040      -0.16422620       0.33696424       0.06473557       0.08997956      -0.27546287
N        3.05893307      10.07824456      11.04167145       1.02612946       0.84830762      -0.10350729      -0.90696219      -0.52385584      -0.08897690
C        2.88221138       8.70397624      10.52552568       1.16771435       1.31695426      -1.16361195      -0.60320692      -1.04520422       0.68619192
H        1.87051046       8.72844345      10.24370273      -1.57426154      -0.60179045      -0.95777933       0.28909814      -0.02278548      -0.08456242
H        3.01028798       7.96840682      11.27486436       0.41680630      -0.77268407       0.90296172       0.06911989      -0.14887599      -0.18658250
H        3.56712740       8.60258153       9.64874523      -0.48534880      -0.21200698       0.57023256      -0.05645988       0.08170471      -0.03640503
C        3.14016975      11.10893670       9.94534521       0.80908096      -0.13080590      -0.07045698       0.21221854      -0.33899722      -0.56916060
H        3.30209178      12.10578682      10.39199428      -0.29788488      -0.23935219      -0.13435789       0.00024516       0.09817022      -0.05958069
H        2.31551154      11.05380888       9.23851882      -0.64568849       0.02448624       0.27830165      -0.08253618      -0.08303039       0.03085166
H        4.02465557      10.86230111       9.32968745       0.04501523       0.01052400       0.27931923       0.22568765      -0.14073340      -0.13224273
H        3.95614085      10.19239361      11.56171122       0.13020309      -0.28344816       0.05978843       0.15529939      -0.21789770       0.04359886
H        2.32085767      10.29405165      11.73285486      -0.51650830       0.11598011       0.15475085      -0.11365933      -0.05137423       0.28274562
N       10.79077363      16.74377692       2.80724902       0.79313744      -0.59809489       1.26163026      -0.31678653      -0.15583628      -1.22065428
C        9.71739729      16.65241737       1.83142176      -1.44609184      -0.40063817       0.17010754       0.71382698       0.75260868      -0.66443978
H        9.45796079      17.66059424       1.54955429      -0.24895735       0.66218185      -0.09432254      -0.35708494       0.01081792      -0.12849881
H        8.79655548      16.18642129       2.30348474       0.99655715       0.18611699      -0.55942199      -0.00930595       0.07587963       0.38879550
H       10.05085963      16.17267261       0.91224718      -0.01206051      -0.48769041       0.03621042       0.03696414       0.14638438       0.10547509
C       10.44726384      17.81180372       3.90891457       0.07562679      -1.75433615      -1.71275453      -0.51341821       0.02439665       0.03610383
H       10.47882750      18.80359982       3.39111251      -0.35187350      -0.62112056       0.78227132      -0.02637866      -0.01340632      -0.22188248
H       11.22120027      17.61385361       4.63406052       0.32563425       0.53531673       0.59792013       0.29905706       0.16433834      -0.29177065
H        9.48453504      17.36983251       4.27940367       0.43617615       1.19036446      -0.06907716      -0.24751856       0.03976574      -0.09031598
H       11.69583415      16.83509834       2.29610724      -0.10110700       0.66973332       0.30151522       0.17540721      -0.10428621      -0.03661824
H       10.97963266      15.84510008       3.34333461      -0.42601689       0.57013525      -0.60095663       0.35091485       0.24502862       0.44171921
Pb      -0.02152262      13.30664781       6.49730430      -0.03114762      -0.04257990      -0.11562235      -1.27621377      -0.65746856       0.25713830
Pb       7.09340632      13.88302600       6.69379246      -0.05933590       0.14009235       0.22550689      -1.53839247      -1.01308322      -1.91204644
Pb       0.03888631      13.22086347      -0.17266674       0.00882541       0.33572697       0.13036009      -2.62382232       3.80773837       0.43474426
Pb       7.22214466      13.42138450      -0.17889063      -0.24023931       0.22013317      -0.09074915      -0.61648629       0.96667829       3.27984750
I        3.54538031      13.77546697       6.84595957      -0.08093002       0.16380202      -0.12513591      -2.73046916       0.38741449       2.16266842
I       10.21696700      13.24424180       6.78644164      -0.08391816       0.06576122       0.01240100       1.38955292       0.73017917      -1.13138612
I        6.21503332       9.83844101       7.41882415       0.03760617       0.24883454      -0.15876974      -0.19638484       1.58792531      -0.26446032
I        7.04657015      17.27444494       6.57989396       0.13470897      -0.41925303      -0.03470564      -2.13038852      -0.58231133      -1.31014473
I       10.49431591      13.83153350      -0.49702124      -0.01570228      -0.01527816      -0.00563101       1.08909852       3.52829939      -1.09818847
I        3.44635967      13.53067895      13.07441679      -0.17518189       0.11901426       0.06115826      -2.95662385      -0.18260141      -1.97903107
I        6.83751366      16.93267295      13.11414565       0.11945971       0.02127637       0.04555680      -0.20454201      -3.41382353       1.91691326
I        7.71446573      10.49966371      -0.08584564      -0.20194617      -0.06762514       0.10439263       0.42572236       1.05453879       2.02928893
I       13.93599624      13.62143877      10.13357832      -0.21421929      -0.08743129       0.06853794      -0.46498439      -1.52353934       0.47875833
I        0.15265439      12.74549931       3.26941051       0.00215767       0.13649460       0.32431508      -1.01967584      -1.04069482       3.52200256
I        6.85047493      13.49392933       3.67176231       0.07326788       0.16878904      -0.17651674      -0.45916308       0.96259312      -3.18711494
I        7.14195784      14.12031221      10.01986553      -0.10224395      -0.07155280      -0.04362414      -0.73323181      -0.14975655      -1.27839862
N        9.36514908       9.42228284      16.08535562      -0.15059369       0.51966696       2.44120145       0.45907098       0.87267902      -1.10591978
C        9.03932756      10.62025124      15.37164572      -1.28724643       0.50816098       0.16100072       0.23068559       0.18454576       0.15137237
H        9.88499839      11.16298485      15.07779603       1.70122115       0.88165417      -0.06691246      -0.06021804       0.10815369       0.22620037
H        8.38267822      11.21726607      15.97757151      -0.21793504       0.51348794       0.63686169      -0.21076059       0.15239393       0.16340792
H        8.49465258      10.46309440      14.47750885      -0.63166284      -0.77344026      -1.08452314      -0.11868090       0.08474158       0.12247416
C        9.99164627       9.72682550      17.44650874       0.01784384       0.79274747      -0.69448171      -0.10137048       0.30355314      -0.02300268
H       10.75033442      10.53193549      17.29625097      -0.08428297      -0.74744978      -0.04170750      -0.19878853      -0.25797943      -0.29246379
H       10.35999318       8.82838856      17.96940263       0.08007497       0.20427156      -0.42140255      -0.01462032      -0.12489746       0.26879756
H        9.20020600      10.18921936      18.01943976      -0.39784373       0.06772650       0.40895292       0.11573950      -0.20267038       0.05772779
H        9.99537000       8.89537368      15.56884421       1.84612563      -1.61186930      -1.59532313      -0.02018782      -0.00935369       0.21741887
H        8.54936350       8.82977801      16.22009397      -0.69600300      -0.33794387       0.12234186      -0.14404152      -0.01560769       0.09441263
N        3.16285694      17.21164605      22.09537805      -1.28509547      -0.52850880      -0.59536311      -0.42161098      -0.54814442      -0.19939347
C        2.42578287      16.99728902      23.38879329      -1.16692607       0.51829040      -0.07292855       0.47625216      -0.23151648       0.66949583
H        3.14160078      16.61349478      24.10384987       0.25210345      -0.19819279       0.32084434       0.09956261       0.07868464      -0.11413959
H        1.61425060      16.23749941      23.23760839       0.52186476       0.56278961       0.04953862      -0.16375181      -0.03470692      -0.09147360
H        1.97209056      17.96304197      23.77628071       0.52181873      -0.81796169      -0.48768869      -0.03153122      -0.03170015      -0.05991201
C        4.52294822      17.76400724      22.34264671       0.26734102      -2.01209159      -1.28995435      -0.50985937      -0.45968427      -1.02405817
H        4.95482296      17.07447843      23.07144550       0.21802943       0.45036449       0.40761721      -0.19806244      -0.08463038      -0.09347333
H        4.48613864      18.78329433      22.59144478      -0.19253802       1.38876601       0.91502085      -0.15000109      -0.22935929      -0.00393674
H        5.16175288      17.67909614      21.44288344      -0.36455448      -0.03844791       0.03333054      -0.22820006       0.20095414       0.32869305
H        2.55490046      17.76018526      21.41691625       0.82303282      -0.11677572       0.63714262      -0.01965583      -0.08703195      -0.06435734
H        3.19870296      16.25110277      21.61159011       0.38305174       0.71177392       0.31026499      -0.14591803      -0.28850371       0.02359218
N        3.45988330       9.46382375      24.00172299       1.02105871       0.50078430      -0.83736817       0.08761033       0.43391568       0.11186489
C        4.89190925       9.05536775      23.74649856      -0.09595716       0.40967612       0.69917192      -0.60440900      -0.62118610      -0.04308251
H        4.98900642       8.70012798      22.73594019      -0.08873868      -0.38255631      -0.63089233      -0.05246693       0.27399695       0.05597455
H        5.18630490       8.26702102      24.48574869      -0.06925164       0.61870692      -0.46877777       0.04255488      -0.21660336       0.29203560
H        5.48005936       9.98430798      23.81512173       0.10317825      -0.30715126       0.34104499       0.15488977       0.15990954      -0.05115481
C        3.11712832      10.76484154      23.24363062       1.87499844      -0.53694955       0.31691150      -0.24696653      -0.51877817      -0.11245523
H        3.73906378      11.55628794      23.73693658      -0.80766513      -0.29892652      -0.21412176       0.05923509       0.17195093      -0.03646753
H        2.05232647      10.93589188      23.22340070      -0.43275452       0.17053479       0.16391483       0.03673053      -0.07032966      -0.15462409
H        3.53400250      10.65900520      22.22201105      -0.34999638      -0.15020963       0.25692224      -0.09149035      -0.07014605      -0.14022834
H        3.41001132       9.57585276      25.01838861      -0.70407461       0.13914616       0.20704979       0.08071609       0.01185118      -0.23692983
H        2.87587527       8.68548660      23.69018160      -0.63812802      -0.15825876       0.09853560       0.13604955       0.04422736      -0.16200314
N       10.41516095      16.70223776      16.01859497      -3.15818165      -1.97178156       0.58972860       0.79931807      -0.45931660       0.37193866
C        9.58049343      17.78398345      16.69604864       0.11458849      -0.05054903       0.46956356      -0.00771978      -0.34992007      -0.00662581
H        8.97323428      18.42806052      16.00784324       0.72728442      -0.61364025       0.08033363      -0.23794124       0.03443808      -0.07086140
H       10.33821964      18.37689092      17.23767345      -0.51155484       0.09257753       0.07946497       0.22035875      -0.46657296       0.00674160
H        8.84843415      17.29343741      17.40330211       0.83736128       0.24624809      -0.55151766      -0.16628088      -0.03476442       0.17385937
C       11.08065308      15.72302042      16.97847638       2.47119816       1.45785911      -1.01702891      -0.44883882       0.43264251      -0.11099633
H       11.76856300      16.35414518      17.63438215      -0.84337326      -0.79048071      -0.51023430      -0.20269424       0.25943031       0.17031789
H       11.70508414      14.97944907      16.41159158      -0.44298920       0.70580696       0.19207525       0.18083752       0.04422607       0.12737042
H       10.37641900      15.16817367      17.52250822      -1.41174169      -0.52700293       0.99554082       0.02114697       0.07540487       0.30739480
H       11.07943444      17.01531901      15.35820686       1.43639343       1.09996334      -1.05923685       0.03041268       0.25629262       0.15827758
H        9.71436258      16.17003617      15.41844660       0.74710028       0.21529706       0.56621574       0.10582997      -0.37712197       0.29099939
Pb       0.04228004      13.07411964      19.91830492      -0.26392345       0.29955681      -0.08813407       3.18114515      -0.74333353       0.92630127
Pb       6.26606348      13.62880854      20.05692721      -0.03903912      -0.32142092      -0.20471860      -1.95482838      -4.50310089       0.29392548
Pb       0.26533922      13.24605798      12.88796391      -0.19250825       0.02001574       0.28920843       2.25935684      -0.10231664       0.24406219
Pb       6.54505740      13.72526097      13.28913781       0.27349813      -0.07555987      -0.08060289       3.10442277       0.82111747       3.14803074
I        3.02799898      14.35710066      19.91921036       0.19790379      -0.01279563       0.11482204      -1.56275206       3.55009370      -2.13420054
I       10.33565621      13.19873557      20.16946960       0.04553840       0.09311468       0.04332790      -0.37467486      -2.39158000       1.08308898
I        6.70887297      10.02479535      19.58075595      -0.25148298      -0.08071989      -0.02753872      -0.43954628      -2.07161274      -0.24221664
I        7.09848388      16.40318205      19.95984783       0.23629038       0.40670801      -0.05807025      -0.13749061       0.10557775       1.70110208
I       10.22297601      13.69227610      13.22250785       0.08466844      -0.03907471       0.10728009      -1.22665706       0.69752698      -2.56509791
I        3.61601896      13.65788256      26.11588444       0.22170266      -0.07707193       0.03673963       1.58138841      -4.28934767      -0.97001251
I        6.35516529      17.07587183      26.28143598       0.20786225      -0.19939882      -0.18771324      -0.57274983      -1.90995148      -0.85975737
I        6.30899526      10.60150005      12.64057307      -0.21792893      -0.21333427       0.18948090      -0.27526904      -1.68965524      -0.36722416
I       13.67901167      14.06277763      23.00753628      -0.01132159      -0.13418755       0.32628887      -0.05533376      -1.79713311      -0.82252701
I       -0.16986975      13.13215762      16.51021191      -0.02775320      -0.03323630      -0.06493753      -5.71328953       3.23576441       0.38820672
I        6.86347376      13.72943322      16.67012210       0.00777034      -0.01255647      -0.04378883      -0.25869808       1.09668614      -0.66306271
I        7.03512418      13.32971737      23.05931970      -0.10622065       0.14678210       0.21609164       0.17211962       1.62982551      -2.18914288
N       17.28082325      17.08213879       4.28919649       3.37480640       1.73804609       1.47992946      -0.70441240      -0.09563142       0.88164269
C       16.36716000      17.78772747       3.41474804      -2.20752843       0.05840832       1.09151171       0.14405520      -0.17780834      -0.11298815
H       16.02237088      17.07503304       2.64615827       0.13876420       0.45597160      -0.14409355      -0.26864747       0.05143310       0.07140127
H       16.93979145      18.62713074       3.07454549      -0.02203172       0.71302162      -0.87365454       0.09353302      -0.18137994       0.14183458
H       15.45834168      18.15691753       4.00033111       0.98484543      -0.40198313      -0.62512612       0.14346766      -0.22341216      -0.11966194
C       18.51560621      16.79219236       3.51746893       0.07083976      -1.34524866      -1.37218057      -0.58584181       0.55168895       0.74227283
H       18.23598191      16.14569895       2.65385830      -0.07100589       0.42074692       0.20095840      -0.04906363      -0.20448927      -0.02845823
H       19.26460377      16.16546715       4.04465348      -0.25950694       0.74037324       0.25421250       0.06342558       0.17438432      -0.20991913
H       18.87066796      17.74954558       3.11880423       0.43299200      -0.22036038       0.15636529      -0.15989378       0.03202963       0.18127745
H       16.95197310      16.22172524       4.68312608      -0.82697114      -1.09014961       0.80778830       0.20857298      -0.05766357       0.03931119
H       17.73143983      17.72324949       5.10994581      -1.73231685      -1.03930021      -1.13083692      -0.09216136      -0.01651751       0.04171383
N       10.45917721      24.37894127       9.90988753       0.16376001       0.21955491      -0.80234717       0.16986919      -0.53658924       0.14821451
C        9.24075339      23.53255966       9.89685621       0.58975633      -1.15554460       2.81279363      -0.17971182       0.00936185       0.01082793
H        9.35406066      22.86880205      10.85028337      -0.53953799       0.82630010      -1.53253405       0.03869352       0.00806349       0.07651771
H        9.27422701      22.91288283       9.02301557       0.08306371      -0.50716663      -0.64899734       0.03818660      -0.21154631       0.15361729
H        8.30910807      24.09561174       9.91303605      -0.01906743       0.27369669       0.15024700       0.16894958       0.08450606       0.22110199
C       11.70575815      23.60214391       9.55677593      -2.77419750      -2.10089653       0.73965622       0.13006608      -1.12537088      -0.32445289
H       11.59448640      23.19508057       8.53538212      -0.04355314       0.31708852       0.16239901       0.06902856      -0.06439292       0.44919436
H       11.68735387      22.71744087      10.24126535       0.45367118       0.65156691      -0.23253595       0.01997882      -0.02149867       0.03267958
H       12.52369897      24.22253478       9.64044789       2.06257032       1.31326468       0.32664781       0.20063863      -0.00073915      -0.11086190
H       10.51929665      25.12106971      10.67923691       0.09388346      -0.76125811       0.13759398      -0.26239969       0.01641692       0.24929991
H       10.33359420      24.98779359       9.12164846      -0.10120237       0.95014615      -0.98213655      -0.02387044       0.07714529       0.16284325
N       10.68738353      16.82611684       9.39619898       1.50974726      -0.32182626      -3.00420364      -0.42700288       0.63307855      -0.49168855
C       10.26224631      18.05887358       8.63737275      -0.19074816       0.37660531      -0.12380191      -0.04131569      -0.02509520       0.35878470
H       10.64408692      18.05143630       7.58478939       0.18632832      -0.20033136       0.81670130      -0.01274031      -0.04689110       0.03457009
H       10.64057597      18.95889724       9.17221867      -0.24332195      -0.43843122      -0.21547220      -0.05712386      -0.02584084      -0.04222844
H        9.17945777      18.04923919       8.50870616      -0.27342189       0.09069524       0.40266504       0.15354355      -0.02740484      -0.08636444
C       10.20454140      16.66997022      10.77608468       1.82977350       0.37686586      -0.54856487       1.02007600      -0.39639397       0.06274069
H       10.53550620      17.58820391      11.17502164       0.26966438       1.20124318       1.35471748      -0.13545907       0.28703079       0.11774591
H       10.67920148      15.84822821      11.31953684      -0.23958348      -0.21530125      -0.30230570       0.13879975      -0.03083486       0.16177296
H        9.16600386      16.70727413      10.72462459      -2.01228507      -0.45868987       0.21531502      -0.02835529       0.01928224       0.32941285
H       11.76093124      16.86905524       9.25224085      -0.95852489      -0.48748247       0.67228771      -0.15813692      -0.11921841       0.00640653
H       10.40315137      16.06002226       8.74490087       0.08197122      -0.08416611       0.73401869      -0.31406025       0.03795163       0.07855807
Cs      16.01788899      23.00386037       2.60584426       0.19736266       0.08557294       0.05156191       3.64350054       0.72372783       1.78010506
Pb       7.09696994      20.57582707       6.51847698       0.05299858      -0.03282398       0.08506405      -0.06406408      -1.43552759      -1.16606513
Pb      13.34010629      20.74782366       6.61196304       0.19422054       0.00110906       0.14026060       0.82401869      -2.55132663      -1.65332012
Pb       6.69882524      20.04185908      -0.17240898       0.12846266       0.22564455       0.11033460       0.30385809       4.66678148      -0.73890082
Pb      13.52185631      20.36675062      -0.05800271       0.06072250       0.03106992      -0.03427547       1.77640419       1.33502091      -4.06293590
I       10.25344446      20.96499661       6.32739963       0.25715659       0.28668110      -0.07927652      -1.56094859      -0.11482192       0.68302987
I       17.25992766      20.01879803       6.43124862      -0.12381166       0.16533431      -0.17093664       2.16166634       2.15966644      -2.77681946
I       13.32185947      16.79797290       7.19156912       0.17689349       0.00080276      -0.04574764       0.98211997      -1.45735188      -0.89383301
I       14.17145291      23.81009512       6.83086822       0.04690744      -0.10545756      -0.13860946       1.24688541      -1.93180567      -0.72797737
I       17.22786648      20.31723009       0.00045900      -0.02584469       0.04339298       0.11198417       0.37960362       0.01479222      -0.01005428
I       10.08062177      20.33156710      13.11691591       0.16917177      -0.01500794       0.05143361       0.45549825       3.50566305       0.54075905
I       13.78523781      23.42446713      13.22540669      -0.08515355       0.15188586      -0.16154921      -0.39074792      -3.92718528      -2.02900529
I       13.62757912      16.71320178      -0.14544562      -0.01053243       0.18762288       0.02566892       1.11128368      -0.59853811      -0.36084566
I       20.31219637      20.37886384       9.96814530       0.03367808      -0.01141160      -0.02551230      -0.13779749       1.25739930      -2.72517957
I        7.34539500      20.56150476       2.97530846       0.05808082       0.08262863      -0.04259033       0.46303982       2.54391245       0.65653538
I       13.15527012      20.64082884       3.50039746       0.14276391       0.00490822      -0.17242844      -1.15560442      -2.74126590      -0.52362154
I       13.16646230      20.14912589       9.77711052       0.15267137       0.01258422       0.13235541      -0.66808122       0.43859780       0.98224690
N       16.81206172      17.51005200      16.40322285       1.39714235       0.19411411      -1.51210127       0.71221721       0.40504030       0.44745389
C       15.92699626      16.32905768      16.39451504       0.10028029      -0.67371834       0.66596170      -0.17561073       0.55893817      -1.24028861
H       16.24786005      15.68823543      15.53763402      -0.18901771       0.22700251       0.49221587      -0.11619323      -0.15197833       0.04158246
H       14.88230486      16.59372597      16.25894651      -0.25032443       0.22314613       0.08868516       0.07277475       0.01274407      -0.06110408
H       16.10378276      15.79036154      17.36197894      -0.31615406       0.21921738      -0.68009942      -0.05802023      -0.01536993      -0.14966162
C       18.24078034      16.98939435      16.50806157       0.20591162       0.60386900       1.79766367       1.25967829      -1.39860869       0.50584203
H       18.31668909      16.35700244      17.47117533      -0.05074723       1.27348288      -0.89113439       0.08164423       0.13799506       0.19283981
H       18.95461941      17.90349659      16.51049009      -0.87747391      -1.70999604      -0.17738406       0.01311647      -0.02296979      -0.06959047
H       18.36208131      16.21202140      15.75669601       0.34775544       0.37796229      -0.72076259      -0.06645407       0.05455429       0.02081203
H       16.69186048      18.29719824      17.05554305      -0.50603732      -0.30406714       0.77354222       0.19919556      -0.12640684       0.01528136
H       16.71759946      18.03190562      15.47953735       0.09477271      -0.40061164       0.22306831      -0.02522403      -0.23498303      -0.12489783
N        9.31845858      23.13124498      23.31967230       2.13847891       0.50353087      -0.98695050      -0.61283153       0.19825640       0.06695509
C       10.78650648      23.38314183      23.51480188       0.19142514       0.27352905       0.30579151       0.62200818       0.18143324       0.02451888
H       10.90965166      23.62629354      24.58754490       0.36948251      -0.16806774      -0.42734241      -0.04349382       0.10429659      -0.05401685
H       11.11247263      24.24154650      22.89241444      -0.45216752      -0.17838041       0.40498984       0.03179113       0.01988226       0.24431828
H       11.42377872      22.53558444      23.18604267      -0.58270311       0.02937908       0.30266794       0.19938830       0.30174044       0.05214449
C        8.94108398      23.80382129      22.06496353       2.71410696      -0.35025473      -0.68386495      -0.58925569      -0.37828958      -0.43419769
H        7.93874926      23.67928522      21.82489655      -2.04493089      -0.19378858      -0.18832909      -0.04421169      -0.27604736      -0.24342823
H        9.56332376      23.22079942      21.30797379      -0.83769881       0.87607838       0.42705957      -0.09251815       0.07858239       0.40819326