640
Lattice="26.080691002322077 -0.20654633471191544 0.08971466046222686 -0.18648653164704082 26.119667441784443 0.02520388859641563 0.15573472075248673 0.013917625660637119 26.34598395538455" Properties=species:S:1:pos:R:3:forces:R:3:momenta:R:3 energy=-2584.614990234375 stress="0.0016097151674330235 -0.00032270449446514254 -9.239010250894353e-05 -0.00032270449446514254 0.0014764245133847 -0.00044035221799276775 -9.239010250894353e-05 -0.00044035221799276775 0.0009122441406361759" pbc="T T T"
N        9.81098464       9.64628291       2.20712962       1.70027234       0.26983044       0.25006985      -0.28062004      -0.43409156       0.62491234
C        8.95062020      10.06238898       3.32789152      -1.18017240       0.85972874      -1.96694787       0.56056567      -0.01481716      -0.19710838
H        8.27348966      10.71115281       2.79665395      -1.04851512       0.27803083       0.21369599      -0.02820809       0.10174118      -0.01659994
H        9.37414807      10.71189721       4.06191995       1.24469004       0.12426265       0.55278288      -0.08089094      -0.01090863      -0.23611229
H        8.43124600       9.24517806       3.74961772      -0.46017065      -1.16207802       0.49772276      -0.07352702      -0.12076390       0.02388720
C       10.97002632       8.86051488       2.74923580      -0.08107793      -1.18569255      -0.64656063       0.56451587      -0.56586308      -0.30240573
H       10.59654639       7.91005982       3.26785065       0.35523670       1.04390374      -0.97801662      -0.05105227      -0.46070399      -0.08294179
H       11.52064879       9.42530411       3.49171298      -0.09072583       0.53144267       0.35112734      -0.05569380      -0.12606331      -0.14000485
H       11.67308247       8.69115735       1.89653472      -0.53640992      -0.31721455       0.55818129      -0.20166073       0.06472335      -0.10793615
H       10.18384565      10.53289924       1.74369160      -0.12867536      -0.46423157       0.22915213       0.10219611       0.00218811       0.17808247
H        9.33378063       9.16754106       1.37401816       0.14588949      -0.02951696       0.95620028       0.13906168      -0.31946453       0.02519474
Cs       3.02041585      16.26975463       9.80673059       0.07237923      -0.11733700      -0.01864988       1.84056740       0.73108373       0.77218981
Cs       3.75320694       9.23309020       9.66308698      -0.11261793       0.08667788      -0.02686774      -0.93061887       2.29506451       0.18547928
Cs       9.69894312      16.04961333       3.35348911      -0.20098330      -0.05219332       0.10453024       1.39309211       2.26815378       1.08351615
Pb       0.08596876      13.05779767       5.81940553      -0.12282935      -0.18502499       0.24110718       1.71494497      -1.67750702      -2.91872164
Pb       6.28174447      13.27637418       6.24808935      -0.21952300      -0.22157089       0.05735346       0.52134057      -2.41527338      -1.30385115
Pb      -0.30262583      13.23880447      -0.22854413       0.01436546       0.23235119      -0.13684193       1.03203819       5.07359904      -0.38157383
Pb       6.99187955      13.15298919      -0.37309342      -0.30778359      -0.42283112       0.21305926       4.50603378      -1.33462441      -1.71711290
I        3.05524201      13.45152446       6.62743461       0.17026572       0.08596577       0.02841865      -0.60787709      -0.77452888      -2.00312669
I        9.17825622      12.59546430       6.12363227       0.64728770       0.12487780      -0.00534030       1.54984286      -0.00221801      -0.56430237
I        6.39887644       9.60868598       6.85477853       0.00387929      -0.26433756       0.00307461      -1.20756497       1.43096882      -0.06479457
I        6.91782335      16.09579302       6.98899422      -0.07850950       0.27078310      -0.09274129      -1.35914181       0.96557149      -0.24670966
I       10.02900207      12.54385086       0.14283556      -0.18216547      -0.08102991       0.11746856       1.33190298       4.05910920      -0.71167977
I        3.73396276      13.71066646      12.73791288      -0.24464730      -0.01794052       0.02883694       2.89350805       2.45786803       1.36229903
I        7.50598398      16.11794426      12.51675005      -0.17646092       0.11368605       0.15718743       2.39471525       0.89482440      -0.49815881
I        6.27465655       9.74954483      -0.00073829       0.00285876      -0.02607679      -0.11725330       2.00596740       0.79035471      -0.75118533
I       11.63383685      13.38687790       9.38102169       0.23856650      -0.14172786      -0.25710209      -1.23426941       2.89688268       1.30848961
I        0.55693026      12.72840460       2.83476699       0.02586951       0.13676997      -0.22243064      -0.86483179      -3.64646607      -2.44749817
I        6.10158114      13.35524837       2.93764610       0.04461578       0.17067724       0.18523138      -2.85574436       0.95714618       1.84919256
I        6.48316452      12.81229363       9.86067922       0.06621893      -0.00332265      -0.14632529      -0.08247794       1.24659669       1.34834023
N        9.87107050       8.56002076      15.83321169       0.53925888      -0.11859520       1.56962967       0.28905670       0.46141766       0.03764808
C       10.16937369       9.31441370      17.13482097      -0.23213662       0.25141483      -1.48145104      -0.09841223       0.08809591       0.03410756
H       11.25942396       9.34425365      17.15261156       0.06611036       0.70468167       0.33153461      -0.11119706       0.15721679       0.01402911
H        9.81274051       8.68727206      17.94126012      -0.11976966      -0.04983844       0.40701288       0.01229330      -0.07925431       0.22482996
H        9.60622204      10.27036826      17.05550036       0.61620435      -0.37106254       0.31561860      -0.20886725       0.04314066      -0.35687876
C        9.65022855       9.37756293      14.63606998       0.28931283       0.89811156       0.48197798       0.57661483       0.84447011      -0.63817292
H        9.00939254      10.31036511      14.87030865       0.73697430      -1.51306808      -0.35742092      -0.17035974       0.10476854       0.29307628
H        9.36031987       8.75432917      13.78865821      -0.52257531      -0.01196277       0.08893853       0.14213842       0.00867259       0.02604876
H       10.68232031       9.64251267      14.44113248       0.28440386       0.96281674      -0.64655603      -0.15117987       0.04546224      -0.19344935
H        9.11581309       7.95882172      16.10322967      -1.45500963      -0.79506010      -0.29431253      -0.09957623       0.21369668      -0.23630153
H       10.68682998       7.91672114      15.73092797      -0.06312704       0.01597109      -0.28811744       0.20462386      -0.01471361       0.15440699
Cs       2.97822039      16.28767596      22.78669406       0.16835776      -0.13767052      -0.05664337      -0.05682755       0.05515972       2.42190417
N        4.04577967       9.84665277      23.45154481      -0.21999864       0.51281057       1.46946289      -0.05960645       0.15840706       1.26206665
C        2.57972016       9.47378059      23.42039585       2.12857496      -1.60272739      -2.56930344      -0.21742260      -1.19818682      -0.53558155
H        2.40375909       9.33355652      22.30904541      -0.43365318       0.17019503       1.18452546      -0.14008219      -0.12035053      -0.19165357
H        2.01137640      10.18604001      23.86557086      -1.73704940       2.53491057       1.14160204       0.13364712       0.08401055      -0.34736901
H        2.44086141       8.54199460      23.94229119      -0.00300996      -0.61815992       0.27863272      -0.13346931      -0.16920528       0.08525712
C        4.35767351      10.97280473      22.56370914      -0.43496380       1.03083374      -0.95341344      -0.84786637       0.70795157       0.21483810
H        5.38658936      11.34800434      22.49076562       0.27157602      -0.88607964       0.05567277       0.21554738       0.21123432       0.01470167
H        3.83670216      11.88041230      22.83441904      -0.54578646       0.34381292       1.02307136      -0.15217820      -0.00955129      -0.11773836
H        3.88031223      10.80243602      21.60377689       0.38231612      -0.55472230      -0.59903009       0.03902941      -0.22093772       0.08115189
H        4.44258488       8.97002513      23.11707739       1.10430385      -0.11388767       0.08297030      -0.25527414      -0.14592442      -0.12046862
H        4.41543871      10.09705517      24.43524335      -0.32238217      -0.78409552      -0.96161469       0.00244082       0.03836293      -0.08229764
N       10.72156203      16.52599929      16.83747998       0.22007345      -0.67604314      -0.33906285      -0.79250366      -0.05511551      -0.59654036
C        9.61164671      17.40641748      16.31726685       0.19127297       0.46530963       1.28094394      -0.43584756      -0.49872765       0.05361251
H        9.31679140      16.96128649      15.36523427      -0.40853647       0.14899446      -0.01647536       0.07166100       0.01986067       0.19087550
H        9.95005395      18.47101985      16.20290137      -0.08855568      -0.84751532      -0.02908595      -0.11674135       0.16436361       0.17212799
H        8.84151860      17.38727174      17.14300679       0.24343794      -0.05620517      -1.11692827       0.08382249      -0.15296763       0.01270174
C       10.35967824      15.04685880      16.82290519      -0.34750547      -0.43929061       0.35323828       1.03991479      -1.09548162      -0.21847643
H       11.15258070      14.42393600      17.39683840      -1.12407325       1.00191936      -1.02393166       0.04386027      -0.04468818      -0.12768498
H       10.26372546      14.74333363      15.72409694       0.10260682       0.19540789       1.43024371       0.27729496       0.19916469      -0.29866580
H        9.35868556      14.97049781      17.36565159       1.09632864      -0.07241324      -0.70879652      -0.06012931      -0.14954086      -0.09640429
H       11.00877502      16.80771200      17.78889595       0.03566997      -0.02134873       0.12179342      -0.29084036       0.14658467       0.13451088
H       11.58020915      16.61916377      16.26119491      -0.00903600       0.32431745       0.04113620       0.20484050      -0.15315519      -0.02967616
Pb      -0.13580404      13.73514894      19.54913259       0.24730968      -0.23176930       0.08889717       2.34669121       2.68683765       1.18237341
Pb       6.89127190      13.19368285      19.69768649      -0.05135345      -0.19782677      -0.05333038      -2.89999315       5.46581486      -0.70382903
Pb       0.47997632      13.42007481      12.61865102       0.05854403      -0.05086164       0.01247665      -1.01357164      -0.26738303       1.15733468
Pb       7.15532528      13.02611378      13.27057662      -0.16850825      -0.07149915      -0.39963470       0.70433220      -0.28582259       1.26357467
I        3.61806529      13.84966392      19.93218883      -0.06024941      -0.03142913      -0.03054680       1.30540881       3.04605471       0.49355004
I       10.00415614      12.93053298      20.18961883       0.04439612      -0.06240777      -0.18192889       2.72867556      -1.15123618      -1.57365563
I        7.21200478       9.86071973      19.57623093      -0.19047597      -0.08759010       0.19083476      -0.25477490      -2.22475298       0.82001790
I        7.18782980      16.43284371      19.64322964       0.12983490      -0.39774434      -0.00698867       0.38724751       0.72296647      -3.06808223
I       10.26988363      12.19693816      12.70806900      -0.37250114       0.09935254      -0.03345563      -0.78513299       2.11657945      -1.45369099
I        3.47457042      13.94714579      25.57820468      -0.11266293      -0.15405855       0.17211167       0.49144363       2.65919427      -1.75058946
I        7.19409606      16.11688689      26.21545423       0.12085444       0.21190086       0.07916219       0.61911004       3.01830268       0.20059787
I        6.37625409       9.81266204      12.49913715       0.04739419      -0.12195556       0.04494211       1.64863797      -2.69576741      -0.29401651
I       12.25810340      13.42512576      23.34123050       0.04017862      -0.06592383      -0.36944156      -3.03092916       0.30105002      -0.26579438
I        0.52722895      14.04247476      16.25324083      -0.14058571       0.00734161       0.12682086      -0.72604492      -2.04036226      -1.01519706
I        7.12785852      12.64377578      16.32743945      -0.06477016      -0.00615725       0.12495084      -0.88391481      -0.37620373      -0.87677368
I        7.69174060      13.40384688      22.97676447      -0.19809917      -0.08638584      -0.11229426       1.35616641      -1.71453642       0.65548356
Cs      16.86010204      15.77980739       3.40192880      -0.11312558      -0.09887955       0.04031791      -1.39559936      -0.73032051       3.64631529
Cs       9.81092307      22.08651188       9.83187884       0.01053931       0.10385169       0.04593331      -1.11097348      -1.14247468      -2.02827375
Cs       9.65811872      16.50039966       9.58306109       0.01341942      -0.06760605      -0.04380609       0.03863062      -1.68778879      -0.08394674
N       16.67983486      22.94338350       3.34130340      -0.53487915      -0.41033634      -0.27563786      -0.07684485      -0.39387616      -0.07400806
C       16.02704356      24.24483775       3.41961617      -0.07556790       1.05837012       1.21976254      -0.12138484       0.56541332       0.22265938
H       15.64007958      24.60067623       2.47203042      -0.50888532      -0.42531084      -0.44500539      -0.04406302      -0.02696913      -0.29055123
H       16.68473037      25.07705510       3.74111998       0.23761261      -0.54332618       0.03571410      -0.12633830      -0.16176604      -0.05714166
H       15.28703673      24.09567717       4.22643416      -0.21457377       0.45265020      -0.53896929      -0.09902095       0.21875313       0.19822138
C       15.68063028      21.83879711       3.30988254       0.70824315      -1.33665154       0.27771904       0.19552623      -0.40996738       0.29958411
H       16.25429555      20.88289097       3.50068015      -0.72273195       0.69157040      -0.35053474      -0.08133601      -0.01154761      -0.20423339
H       15.07240652      21.78523957       2.40141356       0.38670512       0.23532768      -0.34913418       0.24333467      -0.30262862       0.16241589
H       14.98417342      21.98943186       4.12553526      -0.13915317       0.14213693       0.49475560       0.27681721       0.29144824      -0.20380139
H       17.23216522      22.78521890       4.17185450       0.46785114       0.06951567       0.92195683      -0.08483685       0.07174441      -0.27868234
H       17.39729400      22.86157583       2.60118914       0.22070129       0.08204541      -0.84531666       0.01630145       0.15745594      -0.26294972
Pb       6.37463340      19.62101456       6.34624980      -0.10377929      -0.26098932       0.23167682       1.96265579       2.71353826      -2.01750026
Pb      12.81907159      19.54916897       6.59233024      -0.00832903      -0.03866747       0.28808135      -1.72486201       3.14390575      -1.70308725
Pb       6.07074471      19.28389079      -0.04154684       0.37280604      -0.38728179      -0.11453690      -2.53428226       3.71026319      -1.91918309
Pb      12.37998416      19.58269070       0.72709142       0.24019370      -0.12151534      -0.41484868       2.98231215      -2.58835005      -3.39922431
I        9.56015680      19.49835967       7.00216793      -0.16011912       0.06701266       0.01279767      -0.04427423       0.88513441      -0.45297203
I       16.10918073      19.14688904       6.33705660      -0.01729796      -0.08816324       0.05186634       0.45460337       0.92018135      -0.07701030
I       12.40462085      16.32694900       6.18330735      -0.12722847      -0.25172796      -0.11236145       0.10143078      -1.06934293       0.25861666
I       12.55912832      22.66987717       6.64854204       0.06548289       0.10073580       0.03207981       0.03420205       2.53547209       1.31404402
I       15.87609992      18.91279501       0.98474067      -0.03566892      -0.10487079      -0.09921534       0.88608198      -0.86592146       0.12617558
I        9.36704761      20.12527455      13.09068789      -0.13456399      -0.05800022      -0.03243613       0.79747472      -2.31273748       1.90343046
I       13.23103924      22.56496697      13.27917509      -0.02220618      -0.08183454      -0.16222186       1.52076216       1.88951746      -0.86501613
I       11.90550301      16.20324397       0.44959254       0.13452062       0.21694380      -0.11251213       0.85162675       2.69496647      -0.61530556
I       19.49923200      19.51050303      10.09266492      -0.01860616      -0.07319394       0.02186869      -0.92483777      -0.77212504      -0.98672813
I        6.60489225      18.74494574       3.22587142      -0.15659714      -0.05257162       0.03249821      -1.21405523      -1.51082856       3.05760030
I       11.94433155      19.29986752       3.67373446      -0.06722814       0.06049667      -0.00172164      -1.80156613       0.71536434       3.35204539
I       12.31890308      19.01302728      10.30216893       0.07507201       0.15713931      -0.15794449      -2.74430418      -0.43768947       0.06356677
Cs      17.02644715      15.90747129      17.20329199      -0.17271659       0.00547276       0.06457270       0.84259408      -0.53277216      -1.60393001
Cs       9.77529571      23.32491817      23.69023177       0.07447126      -0.12589021      -0.13490095       1.64876677      -0.98540805      -1.85949197
Cs       9.79466586      16.50026790      23.22922423       0.03628470       0.13714034      -0.02576281       1.37259474      -0.95951054       1.30991653
N       15.95860693      21.80568454      17.18020463      -0.62193240      -0.80614211       1.74342477      -0.56949208      -0.35478147       0.19855719
C       16.07330187      20.72106578      16.17331914       0.84691438       1.66783877      -1.89230512      -0.65680264      -0.35376712       0.79258790
H       15.11212413      20.71474756      15.55216908       1.24896082      -0.12359953       0.61733946       0.37351068       0.00991276      -0.01307405
H       16.25770506      19.82139446      16.70674843       0.06049892      -1.17468444       0.35948009      -0.01864340      -0.10503137       0.25103767
H       17.02071930      20.98546704      15.52423334      -1.79941570      -0.52824986       0.91617529      -0.03897006       0.16752955       0.18681553
C       15.75648539      23.09863052      16.49094048      -0.00050893      -0.21364735      -0.75262162       0.43608450      -0.01154463       0.25801505
H       15.68349939      23.95729156      17.13085223      -0.22751928       0.30218159       0.76271244       0.19369804      -0.13190008       0.09601214
H       14.88750112      22.99162859      15.82570652      -0.08414194       0.14379245       0.24202541      -0.15256856       0.06770427      -0.10194706
H       16.61406892      23.24806428      15.84075251       0.34269738       0.05288358      -0.20761631      -0.13558786       0.18083313       0.06375290
H       16.83206919      21.77648529      17.76781119      -0.34568829       0.40538130      -0.34432978       0.09204940       0.06286579      -0.40907202
H       15.19198175      21.54923755      17.91880044       0.93250290       0.67089912      -1.23983021      -0.11696991      -0.07063074       0.21506311
Pb       6.44567035      19.28625680      19.81193377      -0.18271868       0.42915765       0.12829924       2.23187173       2.05191286      -0.51827639
Pb      12.81973904      19.63672399      20.25299758       0.19864314       0.08965016      -0.52361568      -1.61476934      -0.68758059       0.94462043
Pb       6.38527946      19.19161738      13.10115909      -0.04257495       0.23463073      -0.10555216       1.37048518       2.78071156       3.37623961
Pb      13.00797593      18.84145868      13.51634754      -0.14374878       0.10784565      -0.09130606       0.33629688      -0.43785761      -4.47392567
I        9.43077935      20.13878503      20.42083593       0.12894214       0.05542756      -0.10112253       1.90866827      -2.32378336       0.05678510
I       16.33957017      19.12514884      20.06385574      -0.14308013      -0.00618638      -0.07527245       0.63911719      -0.01361752       0.18638462
I       13.03154137      16.01419348      19.74458573      -0.04767126       0.22255303       0.00028508      -2.69915139      -1.83297702       0.99229519
I       13.48417559      22.89432856      20.11671691      -0.14576471      -0.43817194      -0.08696025      -4.54879042       0.55182959      -1.92406205
I       15.96083688      18.21790911      13.38353625       0.16131238      -0.04592065      -0.10529829      -5.60923092      -2.90670954       1.54152113
I        9.66435249      19.51004452      26.08897454      -0.25229137       0.08162916      -0.06388468       2.01498602       0.94888333       1.91121518
I       12.69963874      22.53270731      26.06497604       0.11440448       0.15799978       0.13798756       0.35523146      -0.32354012      -3.38164310
I       12.13030957      15.88427073      13.05316345       0.05490214       0.04632666       0.03652196      -4.13794075      -0.16202577      -0.88418711
I       18.70235151      20.00229316      23.08401823       0.33565587      -0.14768932       0.11742654      -1.35499536       3.03287474       1.20466073
I        6.07883126      19.79770242      16.59228865       0.17787233      -0.16420462      -0.20144049       3.14270953       3.59310797       1.50514690
I       13.48377172      18.67224498      16.61281125      -0.25316104      -0.18630998       0.15303886      -2.99669575       0.38530816      -0.28388720
I       12.47564494      19.44800347      23.07368626      -0.00835472      -0.02222308       0.41643103      -0.05820112       1.16453274      -2.17789668
N        9.08620926      23.29737856       3.79379683       0.54180613       0.45416575      -1.11465155       0.62425886      -0.69809582       0.90536061
C        8.05570921      22.26301453       4.00097581       1.76242965      -1.00190231       0.91498301       0.18748463      -0.26575721      -0.40044865
H        7.42697479      22.59380462       4.83034028      -0.13071226      -0.27675335       0.15979056      -0.03097562      -0.10242305       0.01457186
H        8.63269966      21.26711683       4.18514980      -1.21737616       1.41724795      -0.25998486       0.03272404       0.19963592      -0.13277135
H        7.53111728      22.29500155       3.07508717      -0.94109053      -0.66884419      -0.78266977       0.09461586      -0.21830354      -0.18799165
C       10.00148839      22.91496733       2.64025107      -1.02164709      -0.23470389      -0.76867415      -1.69641768      -0.04667101      -0.24056527
H       10.59788432      22.05567544       2.94614493       0.40750548       0.10756057       0.47814410       0.10605891      -0.07967373       0.03260501
H       10.62196691      23.78708368       2.34033215      -0.37784642      -0.49875480       0.03622386       0.15284784       0.06398038      -0.11063559
H        9.37680609      22.44548701       1.80605575       0.42616535       1.13915848       0.69935495       0.21837962      -0.10248336      -0.32409719
H        9.68840081      23.41988391       4.59268862       0.33941739       0.07546993       0.96628181       0.00817338       0.22376992      -0.09360736
H        8.57207979      24.22863517       3.66592905       0.36587887      -0.46112118      -0.23937091       0.08318954      -0.07659521      -0.03749253
Cs       3.24809122       3.04838434       9.61716936      -0.01498192       0.16624332      -0.14818471      -1.72212037       0.77941961       3.27840020
Cs       2.83810877      22.23074091      10.28546881       0.21016612       0.09534636      -0.25756541      -2.35290574       2.23050803       2.29756080
N        9.44275094       1.62999358       3.40979896       0.99323652       1.10030269       0.14609244       0.19097107       0.26414719       0.09063755
C        9.66405702       2.82548523       2.49156286       1.00805825      -1.21135622       0.55411299       0.13625458      -0.16511478      -0.36320021
H        8.83004067       3.47227644       2.71162646      -0.03078651       0.76884947      -0.03107493      -0.07054751       0.07281423      -0.23247387
H        9.62419144       2.47448865       1.46294764       0.14553486      -0.01429603      -0.23285615      -0.01369411      -0.39823011      -0.04722233
H       10.70068651       3.20068916       2.77539119      -1.33238133       0.02287000      -0.49221046      -0.00273792      -0.00036438       0.25108891
C        9.17995298       2.17895266       4.75665389       0.01427033       1.14529488       0.92758358       0.03534293      -0.42351229      -0.42766101
H        9.67903738       3.17677370       5.04829332      -0.38621359      -1.19589898      -1.09266262      -0.17829912      -0.10632633       0.04737794
H        9.62709299       1.45830321       5.40252771      -0.02899055      -0.62094662       1.12842506      -0.06532569       0.01369227      -0.01371845
H        8.10323961       2.30296843       4.95639447       0.15191559      -0.17702566      -0.22511505       0.22746860       0.23371544       0.44130471
H       10.33692963       1.05590682       3.49934162      -0.42635955       0.22321210      -0.51555638      -0.16572754       0.24455920      -0.12478750
H        8.65961011       0.98995881       3.14076155      -0.05604552       0.12642232      -0.25982271      -0.05209048      -0.18075696       0.03916062
Pb       0.19827383      -0.39319210       6.33922545      -0.21465940      -0.02100517       0.02650616      -1.59979496      -0.15976586       1.25884314
Pb       6.39255385      -0.33516184       7.15869978       0.15062686       0.00325719       0.07352737      -1.14038450       1.88185936       2.13444234
Pb       0.05470108       0.05416009      -0.28158351       0.02851630       0.26265330       0.13252909      -0.79119136      -6.14342147       2.25760356
Pb       6.58793870      -0.49126626       0.05208600      -0.02146741       0.15359883      -0.01349121      -0.58439617      -2.39580727      -2.52861090
I        2.88855216      -0.62819057       7.81041310       0.55710227       0.19086618      -0.18858399      -1.15379937       1.75426270      -0.85969621
I        9.47603882      25.25332710       7.48581230      -0.06010983       0.02023337      -0.12289440       0.99128306      -0.39631537       1.40756305
I        5.05864487      22.38050112       6.46821349       0.03405604       0.10385973      -0.05779947       0.61479850      -0.28757873      -1.04257487
I        7.01496676       2.69209378       7.98537492      -0.20403405      -0.28611168      -0.09691848       3.55051604      -1.97982601       1.55365430
I        9.62640679      25.94080784       0.05501643       0.05284668       0.06162888      -0.12340329       2.98929075      -1.12820789       1.60201098
I        3.45945883       0.75524452      12.38994957       0.20185386      -0.31091903       0.15084733       2.34916141       1.36551478       0.52107963
I        7.27713905       3.10935457      12.61921843      -0.10658381      -0.08699381      -0.16062057       0.86034254       0.17433460      -1.27166753
I        5.88280134      22.23234392       0.20286020       0.04537199       0.53359152      -0.09645679      -2.27732556       1.21148544      -1.03900974
I       13.41128563      -0.04145665       9.78605052      -0.15251670      -0.18848696       0.26503164      -1.30423617      -0.95740599       0.35605581
I        0.19131980      26.09349272       2.90490677       0.06073164      -0.12098523       0.24353875       0.09514281       1.05609659      -0.69338835
I        6.68204652      -0.56357931       3.48279111      -0.17698979      -0.03381577      -0.04167136       0.90177651       0.31707564       3.24652437
I        6.51740264      24.42912521       9.96162306      -0.03686520       0.13386029       0.11302878      -1.32250504       2.76691497       0.31906619
N        9.88686232      22.40861870      17.52210011       0.37817141       0.07162341       0.29907637       0.63139741      -0.49101343      -0.16392647
C        8.83132416      22.94746822      16.56092346       1.29606863       1.08319456       0.20132828      -0.63065745      -0.52739402      -0.26884673
H        7.87361557      23.08145802      17.01560074      -0.85636242      -0.51058611       0.61086006      -0.09593554       0.04028446       0.20630975
H        8.82730290      22.34797672      15.65690043      -0.13890445      -0.31844531      -0.06271424      -0.18011897       0.16467108       0.08712503
H        9.08058617      24.00913257      16.29403304       0.34823391      -0.79666937       0.02252277       0.13038704      -0.01877848      -0.29628137
C       11.09950024      21.80848598      16.75241712      -1.24056782       0.22911262       0.81103930      -0.65804729      -0.39838844      -0.37197318
H       11.43706933      20.98641588      17.37622652       0.48883231      -0.10619202       0.15054507      -0.25466695      -0.09598109       0.14652142
H       11.83795070      22.61412946      16.63757982      -0.08102934      -0.25722706      -0.15896135       0.17846539       0.07904903       0.22759776
H       10.74102355      21.37744756      15.80474177       0.01653332       0.38023714       0.13024804       0.03323635      -0.54042002       0.01299965