480
Lattice="25.541081775018302 -0.00026735231679871513 -0.14408342963221757 -0.004916569404305524 25.862215448045774 0.3274313849112816 -0.14314005179283198 0.30683866218172007 26.00542606680541" Properties=species:S:1:pos:R:3:forces:R:3:momenta:R:3 energy=-1743.1129150390625 stress="0.0012486993800848722 -0.0004200061084702611 -9.026715997606515e-05 -0.0004200061084702611 0.001154700992628932 -7.088751590345055e-05 -9.026715997606515e-05 -7.088751590345055e-05 0.0012980428291484714" pbc="T T T"
Cs      10.21819118       9.66936502       2.63045290       0.01813910      -0.01894084       0.33646103      -0.50888996       0.26785674       0.34902330
N        2.64880906      15.63819576       9.66195734      -1.52478191      -0.57630393      -0.08194454       0.14362183      -0.06258622      -0.27666427
C        3.61896301      16.42019645      10.43730479      -0.07651019       0.55459271       0.74398045       0.40498375      -0.22730589       0.12639171
H        4.63961090      16.00125760      10.32747762      -0.37668788       0.27699034       0.06750533      -0.06636890      -0.07540679       0.07033494
H        3.27859058      16.44489166      11.49374568       0.28026418      -0.35908507      -0.22489349      -0.10024771       0.27005921      -0.08394509
H        3.49990746      17.46103755      10.14094114       0.49984517       0.18457531      -0.49164325       0.02461930      -0.22083896      -0.16805108
C        1.45817337      16.40666334       9.15563720      -0.07286018      -0.29298460       0.61116843      -0.60789321       0.18114001       0.37135904
H        0.85174576      16.67289116      10.00986768       0.09698160       0.78809457       0.44401789      -0.06998463       0.04667043       0.17302296
H        0.73847977      15.83616324       8.54605933       0.67973679      -0.33629112      -0.20481747       0.14523732       0.35867150      -0.19262690
H        1.93166901      17.20850779       8.58409799      -0.57337590       0.38457839       0.09550682       0.26704747       0.03292412       0.15394058
H        2.39452146      14.79040748      10.23949895      -0.07861052       0.28357761      -0.53125843      -0.26795507      -0.12673011       0.24400052
H        2.97337877      15.32472410       8.74855828       1.27331785      -0.92722958      -0.31287550       0.14564915      -0.05016146      -0.00231124
Cs       3.96985585      10.44463331       9.65358288      -0.22808063      -0.04426983       0.08823026       2.11482106       2.52190710      -0.68271673
N       10.26678124      16.62725178       2.49316315       0.05195507       0.58327775      -2.26734351       0.20492554       0.56654338      -0.53126136
C       10.30275244      15.27926222       3.11263133      -0.32018936       0.78560560       0.04573595      -0.32029789      -0.29157437      -0.97176734
H       10.00592476      14.55069786       2.38623158      -0.30324213      -0.53116524      -0.76351341      -0.25658765      -0.21340011      -0.15063730
H        9.58068080      15.24901316       3.91397309      -0.22392349       0.09291230       0.59299766       0.16045413      -0.08003447       0.09439451
H       11.28656469      15.03052548       3.44596758       0.85631568      -0.07858442       0.41952150       0.29292660       0.22208334      -0.06432655
C        8.85954680      17.20971800       2.37068155       1.25139500      -0.75113630      -1.11973609       0.82815201      -0.13497491      -1.07053044
H        8.82727053      17.94796448       1.57665205       0.23321047       0.41509498      -0.11894398       0.08004665       0.01586749       0.13332896
H        8.48662088      17.60252899       3.27576234      -0.13678912       0.45740435       1.42588548      -0.04807668       0.04824848      -0.07774265
H        8.24285273      16.40178999       2.03776451      -0.57009071      -0.77559715      -0.15682308      -0.09175250      -0.05419215       0.15708401
H       10.69101096      16.55208218       1.47781496      -0.74270172      -0.05458225       1.27292898       0.19730226      -0.25408158      -0.14804525
H       10.89935191      17.35512680       2.88104678      -0.01489755      -0.10653505       0.67776360       0.02747368      -0.03493844       0.14417600
Pb      -0.09251942      13.09345002       6.54101607       0.09427320       0.80804940       0.35143681      -0.54349230       0.18971322       0.53441442
Pb       6.76642270      13.02480755       6.23450442       0.08303811       0.11398951       0.19253413       1.91134181       0.75383734      -2.76832416
Pb       0.19829699      13.44856881       0.63427021      -0.17117699       0.03079118      -0.36003967       1.19216126       0.70851618      -2.48226066
Pb       6.50103393      12.60459676       0.06422007       0.17698461       0.25190228      -0.16462972       0.95905951       0.45603606       2.58178090
I        3.11671535      13.63681560       6.78168394       0.06032412      -0.07159489      -0.18307008       0.77355926       0.22820276       0.82403187
I        9.80988513      12.43012566       5.55149275      -0.11659212      -0.01752698       0.26100785       0.68329388       3.15557369       1.16399170
I        5.86137656       9.87606572       6.35798611      -0.00844887       0.56136879       0.10283031       0.22152732       1.80624209      -1.87989256
I        6.79053319      16.31242474       6.73937771       0.00708869       0.03935708      -0.12007812       1.85207341       1.76768669       2.21010582
I        9.77920950      12.02593394      -0.11106954      -0.06492451       0.17102560      -0.11988638      -0.04871381      -1.79824267      -2.97127473
I        3.25144571      13.29600540      12.34710196      -0.07881814      -0.02269537       0.06103785      -0.75827003      -0.40859232       0.96869823
I        7.13234280      17.00864154      12.71841486      -0.13054153      -0.02502205       0.10619280      -2.49408978       1.61029575       1.09600588
I        5.20458320       9.83389610      -0.53777895       0.13831600       0.14081815       0.22440261      -0.46628627       0.99344424      -0.69652681
I       12.26260258      12.50396653       9.62805095       0.04607926       0.09738004       0.03043571      -0.67620659      -2.55155795       2.52087271
I        0.23956280      12.58304763       3.62367265       0.08110296       0.01934787      -0.45078712      -1.14424021      -0.77545620       3.95755866
I        6.13193629      12.75980707       3.26543600       0.06204665      -0.00448907      -0.10043872      -0.19433503       0.59715997      -0.28977251
I        6.42546366      13.15879617       9.79221587       0.27661454      -0.00119700      -0.19214979      -1.95736329      -1.30109125      -3.17213089
N        9.30309555       9.04588650      16.42510828      -0.99387940      -0.16180690      -0.50977838      -0.47358814       0.40724848      -0.34023207
C       10.55142528       9.81542298      16.29471938       0.77154058       0.50467488       0.30324988      -0.35452691      -0.57659669       0.78539733
H       10.63035458      10.25696048      15.30162901      -0.28027088       0.23881294      -0.18973357      -0.11533147      -0.11959997      -0.07589172
H       11.37953789       9.10435099      16.37864713       0.10661918      -0.04616491       0.08658780      -0.02088444       0.13682950      -0.09254002
H       10.66985829      10.58252972      17.08495190      -0.35547965      -0.23805265      -0.20665991      -0.17314043       0.03600906       0.12838808
C        7.99179888       9.75842068      16.40466755       0.37210344       1.21604729       1.94416194      -0.91110424      -0.18733725       0.01410443
H        8.12369458      10.58297900      17.16899134      -0.37696045      -0.49835970      -0.94075310      -0.01108588      -0.00278668      -0.24375661
H        7.09381149       9.18878167      16.68193228       0.56448579      -0.51881001       0.25074312      -0.18164802      -0.37527797      -0.06799048
H        7.80587888      10.07363057      15.41975131      -0.05189483       0.96709260      -1.41511299      -0.07958074       0.19697171       0.04896337
H        9.29236285       8.53205402      17.29502237       0.32369196      -0.75570209       0.97649485      -0.11258425       0.09181042      -0.05893453
H        9.29731622       8.38179769      15.64397336      -0.01492910      -0.61218040      -0.35552271       0.52059278      -0.24030486       0.01060676
N        4.11744488      15.95901121      22.76313433      -0.80039060       1.48137078      -0.78309844       0.13285194       0.14860967      -0.39687477
C        3.34615034      14.89988593      23.49561886       0.56191637       0.80965220       0.71873936      -0.11901167       1.42085527       0.12364549
H        4.13866042      14.24736590      23.88863474      -0.34248997      -0.18298777       0.17011928       0.08546657       0.18461556       0.01049689
H        2.62026916      14.30818544      22.91228954       0.19533373       0.58855279      -0.25421470       0.01949794       0.18002095      -0.01893768
H        2.87302618      15.48791495      24.29916983      -0.17494336      -0.56691418       0.04471206       0.20797223      -0.03672887      -0.06011266
C        3.38888582      17.36724050      22.47472453       0.86911011      -2.71748707      -0.51661844       1.17164739      -0.46628428       1.05460285
H        2.42414676      17.05117866      22.13563655      -0.61158479      -0.07218258      -0.95657718       0.38566359      -0.25666712       0.09719277
H        4.03124279      17.92693092      21.79969733      -0.12001343       0.01158950      -0.21962107      -0.06092724       0.00127787      -0.24965705
H        3.17717449      17.88120476      23.35450250       0.22594303       0.81952541       2.01467826      -0.10457220       0.16503076      -0.10376564
H        4.31858738      15.57699914      21.84232969       0.29458838      -0.08362977      -0.59484757      -0.01924741       0.22026911      -0.06743776
H        5.04074660      16.14215083      23.19440454      -0.15211386      -0.07765636       0.19714149      -0.06672847      -0.03720326       0.07993757
Cs       2.68627031      10.63419464      22.59569952       0.09889656      -0.01504749      -0.03569736       0.85757015      -0.35837174       0.39733507
Cs       9.04976396      17.16823696      16.21809547       0.16060391      -0.10677258      -0.03231454      -0.15268784       0.88205734      -0.83202293
Pb      -0.48341330      13.54082790      19.54428216       0.14500768      -0.00127748       0.12980377       2.66935071       1.82729605       4.62441758
Pb       6.13035044      12.90594709      19.55338585       0.03021880      -0.17571913      -0.04426507       1.34358675      -2.12318851      -0.45111984
Pb      -0.68191728      13.25851038      13.26806683       0.43080226       0.14270660      -0.12064723      -3.76115491      -0.99677193      -1.53601861
Pb       6.19228983      13.97100688      12.95727981       0.17046232      -0.20636376      -0.03720120      -3.83280017      -3.99102782      -0.73761623
I        2.90379460      13.52634141      19.30252633      -0.20349782      -0.05291212       0.14789390      -0.10972446       0.99738383       0.71409118
I        9.24753793      12.95579395      19.21083201       0.19237699       0.04251112       0.07580930      -1.11930640      -1.69879423       0.47758176
I        5.87692101       9.72298760      19.71815399      -0.08480881       0.24297343      -0.04723166      -1.77628376       0.10553322      -1.54862246
I        6.21715277      16.81210050      19.60207180       0.09927460      -0.40274305       0.05582703       1.66426366      -1.06178991       2.31597846
I        9.40636174      12.67205589      13.06678101      -0.16062241       0.03006002      -0.01733950       1.31191071       0.03664045       0.12182394
I        3.22211215      14.12154682      26.84569929      -0.05423816      -0.08959399       0.06617505      -1.80288053      -0.12501648       0.49545528
I        7.66469899      16.13883778      25.07028978      -0.32463483      -0.08161817       0.05573422      -0.70410984      -1.11968658      -1.44499121
I        5.82238694      10.06847045      13.24580669       0.04624748       0.01049137      -0.31087468       1.48945821      -1.05018854      -1.19893863
I       13.62805631      13.45774021      22.59709061      -0.35392271      -0.01353462       0.00897162      -1.01293342       1.03399668      -3.08405008
I       -0.65384578      12.84351310      16.27179388      -0.04031620       0.09480981       0.59119606      -1.61308372       6.49459953       0.29700532
I        5.93801341      13.89192781      16.05955996       0.02742421       0.11778485       0.16742145       1.52589477       0.38729362       0.09126738
I        6.71438992      12.93737249      22.62434632      -0.07100752      -0.02470660      -0.03567898      -2.67102029      -2.55670530      -1.51938441
N       15.57029776      15.98655755       4.05390436      -0.39610382      -0.30760828      -0.18412057       0.81745616      -0.27717794      -0.11944800
C       14.71486360      16.46287151       2.86996543       0.80334866      -0.55836079       0.65478266       0.15059310       0.84491545      -0.07009274
H       15.42562966      16.65645332       2.08282756       0.21802558      -0.20536610      -0.70460222      -0.11680199       0.11390392      -0.03271872
H       14.26516515      17.41718362       3.07265199      -0.35810753       0.56835784       0.66946547       0.12390228      -0.01667572       0.01789335
H       13.94255231      15.74384914       2.62672618      -0.00206491      -0.42460752      -0.11799787      -0.35255212      -0.21537891       0.31328849
C       16.38610215      17.15743755       4.59208426       1.38966731      -2.15995341      -0.90316047       0.00431784       0.15102772       1.56832651
H       17.39389571      16.73615758       4.90574000      -0.92185444       0.41828162      -0.13130160      -0.24079577       0.06525559      -0.00514735
H       15.85912679      17.53935838       5.43047475      -0.52859132       0.86897018       0.69124263      -0.04320297       0.03929426      -0.06143625
H       16.56338730      17.82007687       3.73933518      -0.26079587       0.27117159       0.23602909      -0.08774524      -0.09667184      -0.10950264
H       16.23862239      15.20605607       3.75856836      -0.86180767       0.88427359       0.19573488       0.16433484       0.17835691      -0.17042653
H       14.94812765      15.53894634       4.81245354       0.84050845       0.56520391      -0.67760892       0.10200162      -0.11726221      -0.02167998
Cs       8.86885743      23.22966208       9.59593439      -0.00105380      -0.17537669       0.25516030      -0.69212563      -3.82720418      -3.05173740
Cs       9.05573093      17.61170943       9.57537891      -0.09587072      -0.11462922      -0.06855185       0.59313938      -0.78736044       1.40056297
Cs      15.49844613      22.31039761       3.19224113      -0.04043787       0.08060688       0.02705040      -0.30293504      -1.82793903       1.93230488
Pb       5.83651163      19.46857592       6.38092518       0.03806240      -0.08067267       0.15925514       1.38118482       2.43147918      -1.32629864
Pb      12.01062329      19.80527520       6.55855748       0.09146888       0.00530010      -0.06459151       2.94267093      -1.33655725      -2.49531263
Pb       6.36559296      19.51222577      -0.08716697      -0.04406823      -0.20377159       0.02721557      -0.48183942      -1.33783587      -2.39827626
Pb      12.53127068      19.63448720       0.09282142       0.02668588      -0.24449348      -0.02400731       2.05158393      -2.04871906      -2.43585516
I        8.89728876      20.40626979       6.11775128       0.05112821       0.07671504       0.12024673      -3.15698421      -1.74043101       0.94265013
I       14.96593159      19.62524976       7.40269354       0.40393926      -0.09103009       0.04426393       1.94240548      -1.68419976       1.79349630
I       12.23769972      16.31413716       6.89644464      -0.08065113       0.04051407       0.07148716      -1.62719560       0.92925082      -2.79234808
I       13.17166835      22.91376400       6.49676910      -0.03243047      -0.21917383      -0.12350959      -0.58317865      -2.16068394      -2.58454605
I       16.39055738      19.05705048       0.10461626      -0.22982849       0.06325464       0.03372730       1.70325006       0.34712893       0.51580880
I        9.43165157      20.63234739      13.57544412       0.11092675      -0.18675365      -0.06395226      -0.59893193       1.23437650       1.25540878
I       13.21387208      22.97881831      12.98126804       0.03354559      -0.42590876       0.12012952       0.21338939       0.47213296       2.21105896
I       12.48172250      16.33307494      -0.57124696      -0.09230235      -0.24760959       0.18196738      -1.27328639       2.35209387      -1.42570843
I       18.41866256      20.01911643       9.87220194       0.05028161       0.10822652      -0.00695180      -2.36217593      -3.70193676      -4.27530937
I        6.13677336      20.13047875       3.30021377      -0.10152698      -0.10932112      -0.16553779       1.59437043      -0.51156983      -0.43251944
I       11.68785581      19.96044435       3.03533295       0.02789186       0.03437114       0.38718881       1.55984232      -2.24128666      -3.20527931
I       11.55573605      20.27212562       9.57022344       0.04655186       0.07128674       0.25080018       3.38696676      -0.48270177       0.58046220
Cs      15.58862948      16.63581692      16.11722295      -0.01817304       0.19082862       0.19559971       0.71484859       2.06158483      -0.28968549
Cs       8.77617035      23.18656223      22.50949427       0.04890019      -0.05661393       0.05890592      -0.37108029       0.11059650       0.64493790
Cs       9.12586069      17.34114187      21.95728206       0.12553040      -0.00887741       0.12533267       0.65327209      -0.79909235      -1.09480878
Cs      15.39200395      22.91568082      17.22609564       0.12744087      -0.12799167      -0.03069345       1.16735891       4.00031329      -1.00030329
Pb       6.13408331      19.83990681      19.57789847      -0.07471665       0.34182597       0.04002749      -1.47594587      -3.33737787      -0.16499846
Pb      12.27962948      19.83213589      19.71049872       0.41334760       0.14481304      -0.01690220      -1.19290563      -0.46616992       0.75140964
Pb       5.32892979      19.82873674      13.40973206       0.55204551       0.01250117      -0.53891742      -1.76648381      -2.87565305      -0.75347594
Pb      12.55665979      19.71482830      12.99139661      -0.29284619       0.21234875       0.16674100      -2.49445709      -0.34610595       0.15004192
I        9.32993208      20.42652832      19.12429248      -0.34770738       0.07483281      -0.03136239      -1.65465308       1.04715150      -1.02235653
I       15.42788664      19.45539252      19.89939780       0.31304685      -0.04298835      -0.09478911      -1.01110799       1.35391924      -0.07056134
I       11.93759666      16.86581075      19.35186690      -0.19279431      -0.22419915       0.08151684      -0.15256820      -2.51512202      -1.15543529
I       13.29718469      22.98946272      20.58420730       0.01750293       0.05005203      -0.07725066      -2.54418765      -2.01645789       1.83613085
I       15.62240140      19.40373140      13.05948296      -0.07661013      -0.02728619       0.00652371      -0.33955125       0.34206475       3.38052639
I        9.33057244      20.36326457      25.30459356      -0.02899799       0.09609888       0.03138396      -0.89023304       2.10395272      -0.26112854
I       13.19417031      22.80615737      25.83321563       0.05675482       0.54144863       0.08510630       0.77261082       1.09707115       1.11809323
I       11.73041668      16.42589355      12.02167132       0.09839257       0.30438992       0.00615068      -4.60268325       5.92901724      -2.55403695
I       19.14383243      19.54519259      22.90671147      -0.13474551       0.21688207       0.15309218       1.83312112       3.70375641      -0.81718408
I        5.92687133      19.26829207      16.26250254       0.18119314       0.01208212       0.25138516       0.15899566      -0.19097546       0.46282727
I       12.96904008      19.83321226      16.31166534      -0.08271826       0.01957807      -0.08737858      -0.12050118       0.43427199       0.16120827
I       12.57471338      19.64271862      23.05048679      -0.00725139      -0.03032181      -0.56133177      -0.42878668       0.76020572       1.26653049
Cs       8.56103423      22.72647179       2.81728716       0.13590405       0.10620026       0.04204412       0.58515172       0.67150528       1.67879088
N        2.29227603       3.22777261       8.88152485      -0.21632451       2.06638604      -0.34434999      -0.29978145       0.20112952      -0.55275533
C        1.26017895       3.46993888       9.94237233       0.83826593       0.48746863       0.84639449      -1.37833894      -0.31003802      -0.01449451
H        1.75568533       3.30232010      10.95541019      -0.53414451      -0.13091604      -1.07014765      -0.15606117       0.20234251      -0.00560862
H        0.37513691       2.84378746       9.80497615       0.05676797      -0.22394904      -0.08707495      -0.17776439      -0.15835667      -0.11128241
H        0.95403271       4.54703505       9.92387365       0.27709466      -0.55633655      -0.25421820      -0.02333293       0.19035912       0.09276847
C        3.59318248       3.98758461       9.22701085      -0.94180956      -0.15815448      -0.59592205       0.58067006      -0.58514973      -0.55271945
H        4.32161030       3.91954579       8.39593160      -0.31689667      -0.10599844       0.29251079      -0.16779824       0.00430461      -0.23027784
H        3.93238011       3.49122384      10.13459750       0.41719642       0.07718389       0.18240386      -0.14960719      -0.09002341      -0.16810866
H        3.32666284       5.03847668       9.43911907       0.06423075      -0.27778062      -0.10334886      -0.07020337      -0.22908341      -0.08179639
H        1.86684236       3.48475263       7.91724560       0.58313934       0.08957372       1.01756452      -0.07216137       0.07087376      -0.21097358
H        2.54154027       2.25384541       8.74955861       0.01963361      -1.06187571       0.03391918      -0.13902278       0.03260025       0.03214334
Cs       2.98513631      22.68653830       9.83548459       0.12997380      -0.00765115      -0.07455484       0.56618408      -3.27401245      -0.48261496
N        9.19666870       3.30936174       3.55711522       2.15314682       0.69775120      -2.13536622       0.91895090      -0.95594592       0.26530761
C        8.52857342       2.16993282       2.95518973       0.88587592      -2.73830049       0.47555227      -0.51425570      -0.73817449       0.66587116
H        9.30313841       1.28586591       2.85372036      -1.29328849       1.51609658       0.14422352       0.16805143      -0.16064551       0.02251070
H        8.13022075       2.39458002       1.97211296      -0.23327203       0.28708214      -0.14420768      -0.03150524      -0.25780883      -0.11513955
H        7.76441472       1.90209860       3.71877782       0.00648443      -0.34255105      -0.72206268      -0.17863522       0.03551346       0.01471215
C       10.08057131       4.11537660       2.54403727       0.56500109      -1.78262336      -0.28294952       0.16728634       0.54965940       0.75943040
H       10.28002179       5.13625748       2.87769302       0.00634330      -0.08730964       0.41590969      -0.06915780       0.08765017      -0.06608173
H        9.54085027       4.15758928       1.56992196       0.06253075      -0.13464492       0.57998729      -0.19235606       0.12818703      -0.11209934
H       11.05244936       3.50144819       2.38877397      -1.36554045       0.93873097       0.34987598      -0.20371915      -0.27200387      -0.10385748
H        9.77453816       2.93798662       4.32264397       0.34482995       0.37007154       0.47157721      -0.18426523       0.18548228      -0.21265224
H        8.49457788       3.91553006       3.89971938      -1.06905728       1.18552819       0.93833673       0.14459166      -0.07928515      -0.15633232
Pb      -0.22978514      -0.02452258       6.24836965      -0.27375734       0.42951941      -0.02993894       0.51726089       1.34119529       3.50704988
Pb       5.88261726      -0.04849632       6.34722750       0.16694980       0.32684481      -0.15404632       0.07873234       3.78744925       0.14361616
Pb      -0.07698584      -0.06234619       0.06919051      -0.13315479       0.28864291      -0.25761019       3.51947062      -4.50110451      -3.53715699
Pb       6.21754527       0.10837304      -0.55755922      -0.11298156       0.07338287       0.13177298       2.97163152       0.25214414       1.72954922
I        2.70237587       0.85445204       6.55379786       0.06012543      -0.36242409      -0.18173824       0.91570518      -0.37433636       0.46801370
I        9.33350051      25.38221394       6.83559659      -0.09378659       0.06076515      -0.27923422       0.41420647       0.34889965       0.68863645
I        5.34945665      22.88416771       6.56129663      -0.15782503      -0.44133267       0.04745035       0.60992306       0.01765768      -4.27761735
I        5.87846603       2.98455709       5.51354700      -0.05353823       0.36207535      -0.15762025      -0.90183315      -1.86664389       0.02274576
I        9.43633096      24.89557956      -0.20354290      -0.12132713       0.09220898       0.21617619      -1.02614530      -2.47099410      -0.25601412
I        2.50340489       0.90752378      12.95102708       0.45821202      -0.09197984       0.05923743       0.85380929       0.81910500      -0.10169772
I        6.60934921       3.58495429      12.91900614      -0.01769633      -0.18582029      -0.16651660       0.33722740       1.94629853       0.42398161
I        5.83380487      22.40963335      -0.71115563       0.03058360       0.46726108       0.40811982       1.89931633       0.50768969      -0.99386121
I       12.66936122      -0.28257035       9.80404756       0.01242857       0.03942569      -0.09286146       1.95210909      -0.97210483       1.21911547
I        0.24095078      25.54685022       3.38946777       0.03749984      -0.01200060       0.34975314      -0.40102863       0.09052417      -0.69209935
I        5.36145460      -0.65218820       2.69352590       0.17654322       0.03760652      -0.12879334      -1.63742120      -0.93166682       0.27950807
I        5.71815221      26.30364431       9.77523132      -0.05974946      -0.20788919       0.15466041       1.27663328       0.58076813      -1.94856281
Cs       8.78519140      23.06807421      16.24745867      -0.00243896       0.00590717       0.00931115      -1.47659493      -2.16104094      -4.52376777
Cs       3.73772650       3.91390802      22.79541902      -0.15438030      -0.00284456      -0.01977197       2.38123897      -0.72489957      -4.45507256
Cs       2.61925417      23.33311756      23.30988320       0.11931019       0.00530215      -0.26763782      -1.77403875       0.99700382      -4.29586125
Cs       9.34679677       2.93696573      16.00212071      -0.11445894       0.00992615       0.07283494       1.91868744       1.72940200       2.05724341
Pb       0.04424559       0.59776367      19.35435872      -0.35263567       0.22593630      -0.05420840      -0.00260023       4.08612224      -1.06039046
Pb       6.13328857       0.37092872      19.17129902      -0.01937392      -0.01289143      -0.03280520      -1.72063279       0.86164293      -2.20274583
Pb      -0.63719123       0.50485111      12.29351408       0.27252277      -0.07082831      -0.03372753       2.11421431      -0.81734261      -0.87304652
Pb       5.87618765       0.38349770      12.69738305      -0.05660498       0.09936588       0.11395462       0.39212983      -2.16340683       1.67024769
I        2.95398074       1.38561682      18.99142214       0.16301458      -0.03943419       0.13294693       1.45286144      -1.48514640      -1.50483209
I        9.41547697      25.23562329      19.41399876      -0.22505677       0.06391311      -0.08356753      -0.44361050       1.66665823       1.82619432
I        5.51607434      23.15177747      19.76036428       0.05421408      -0.00965151      -0.02924120       0.74175963      -0.99552562      -4.95473327
I        6.80256176       3.23061624      20.55457279       0.10557357       0.37095418      -0.10638076      -0.74425332      -0.45525947       0.19837360
I        9.24507875      25.63323044      13.36478348      -0.02488358      -0.11529277       0.08934016      -1.46079764      -0.98854502       0.57792745
I        3.06061432       1.50965962      25.65990499      -0.00220340      -0.18958568      -0.09930271      -2.42677790      -0.67336327       1.89697975
I        6.83775921       3.85277496      25.31493161      -0.00073045      -0.08248253      -0.06040521      -0.53863858      -3.20647229      -0.90914132
I        5.85426171      22.94273440      12.64999992      -0.05514267       0.11389379      -0.01075722      -1.67461369      -2.53585508      -1.54036832
I       11.78617583       0.39436814      22.64892552       0.04784521       0.08164939       0.21421550      -2.54993633       0.11237203      -4.04019089
I       -0.64583057      27.46139715      16.56741237       0.00294376      -0.37585164       0.27475064      -0.52134184       1.11773728       0.88069990
I        6.27933790       0.21565282      15.96821846      -0.01068490       0.10325109      -0.11182451      -1.72966893       1.20449889       2.00285689