880
Lattice="27.67455296528657 0.02018893970901714 0.026925756326470533 0.043982268459538766 26.318632319758514 0.16048996031831933 0.02047536932569818 0.1748973416812317 26.73651185268572" Properties=species:S:1:pos:R:3:forces:R:3:momenta:R:3 energy=-3848.5095214843745 stress="0.0005739270127378404 0.0007099758367985487 6.648348789894953e-05 0.0007099758367985487 0.0009447233169339597 -0.00030230477568693464 6.648348789894953e-05 -0.00030230477568693464 0.001582158962264657" pbc="T T T"
N        9.40098938      10.18246945       3.35835271       0.84902329       1.43139883      -1.35093173       0.52609649       0.26345698       0.12797945
C        9.74856131       8.78784150       3.51737386      -1.82031896      -0.55760119       3.02564921      -0.64922962       0.00795754       0.60916384
H       10.59224795       8.53655535       2.95725039       1.51190223      -0.56280134      -0.85305903       0.17444045      -0.19873486       0.01457694
H        8.86183864       8.18940236       3.33642567      -0.10267679      -0.32323616      -0.72344638       0.08934855       0.03305152       0.15451765
H        9.84838631       8.63843684       4.64337363       0.57645378       0.02273296      -1.16367852      -0.02535112      -0.13531978       0.12477016
C       10.38128395      11.06006687       4.06546114      -0.25015090       1.07069561      -1.61718803      -0.01639015      -0.41029778      -0.65090515
H       11.36034197      10.66198314       3.81050872       0.29642014       0.14135576       0.20268538       0.15389571      -0.01286134       0.13379636
H       10.16035029      11.11428999       5.09465379      -0.08147786      -0.63304736       1.54731172       0.13330824      -0.03996325       0.00952394
H       10.24837240      12.12247465       3.75091544       0.19273036      -0.63991457      -0.30509784      -0.20954503      -0.28790306      -0.20689911
H        8.46829702      10.32931110       3.68533545      -1.24674081       0.39657100       0.75908239      -0.12458392       0.15947531      -0.25470599
H        9.35484784      10.49638429       2.35370297       0.16415497      -0.33151327       0.36609354       0.00068137      -0.01417358       0.09606812
N        3.36336398      15.43791522      10.83205269      -0.34633117      -2.34671286       0.78470047       0.26502881      -0.35836922      -0.66463462
C        3.39795863      16.55117643      11.83877355       2.64393853      -1.47013796      -0.60500515       0.37178266       0.22355022      -0.49070203
H        4.28902082      17.17567964      11.62967701       0.01987907      -0.47409621       0.29991045      -0.14651594       0.24801671       0.06790226
H        3.33846554      16.12349260      12.83429061       0.37727858      -0.19003991       0.35030300       0.02400935       0.17074049      -0.17570784
H        2.61024563      17.18014269      11.72453502      -2.79738686       1.75698450      -0.69873956      -0.14634134      -0.07724231      -0.14475395
C        3.49587155      15.80714308       9.41053080       1.16680482      -1.23716452      -0.11725866      -0.01662673      -0.72445143       0.54156022
H        2.68954136      16.41796459       9.20362927      -2.04044125       1.26796149      -0.80624450       0.27193072       0.03009315      -0.07786530
H        3.53330437      14.90398912       8.73700997      -0.13189176       0.72114634       0.70855242      -0.16994885       0.09279183      -0.14905519
H        4.37960863      16.41873543       9.23586057       0.46034013      -0.04332881       0.21500656       0.16869038       0.06079973      -0.08413472
H        2.44184916      14.81103780      10.96721342       1.29577362       1.17423838      -0.25328558      -0.17419554       0.00676641      -0.29483480
H        4.15262712      14.70924854      11.01602127      -0.70616566       0.92685239       0.03251030       0.18778979       0.10466703       0.02888131
N        4.39781786       9.73017550      10.36580320       0.50169384       1.12520816       0.42410017      -0.22266982      -0.64066023       0.25937770
C        3.37236068       9.73373445      11.45984149      -0.80914351      -1.68849300      -1.97039963       0.97325423       0.90574325       0.33792282
H        3.81244309       9.47488716      12.38058170       0.73814197      -0.18196848       1.24070890      -0.05964835      -0.09177282      -0.24936446
H        2.63690913       8.91729086      11.17987854       0.50717563       0.85708576       0.31054383      -0.24837830       0.13134851      -0.11670256
H        2.90108609      10.68442136      11.47529496      -0.54605053       1.05034990       0.05697427      -0.02182998       0.30115664      -0.23568979
C        3.87501505       9.92413353       9.01908276      -0.52417610      -0.49588170      -1.37383212      -0.82325866      -0.93646110      -0.03199417
H        4.57761996       9.45565478       8.28163746      -0.16457229       0.95353134       0.36887267       0.21861388      -0.22257856      -0.11046646
H        3.55800284      10.96763517       8.83426548       0.53156781      -0.21620550      -0.00760381      -0.17454726       0.29755611       0.00842173
H        2.98270615       9.31404575       8.87659487      -0.38179016      -0.17725329       0.40361715      -0.03904955       0.04305788      -0.15781401
H        4.91471008       8.87148856      10.35995629       0.52616796      -1.42622158       0.27080714       0.12338266      -0.08911661      -0.04538459
H        5.16604758      10.42333503      10.52758845      -0.43425919       0.14732899       0.25533817       0.09863323      -0.13262364      -0.30524849
Cs      10.44972997      16.58837831       3.39498978       0.04203605      -0.25730958       0.11706772       2.24492256       0.26310271      -0.78796674
Pb       0.19481712      13.20056933       7.22739515       0.12995568      -0.01789245      -0.13919451      -1.73802696       0.26154437       1.49045078
Pb       6.63289952      12.77884341       6.94417514       0.07226756       0.21190965      -0.12596028      -5.79629450      -0.33928433      -2.07285357
Pb      -0.79762648      13.48966120       0.30263679      -0.22898272       0.07892698      -0.13745173      -1.39393137       3.62500963       2.69020074
Pb       7.35603981      13.12983618       0.23277001       0.09656366       0.16701748       0.00114686       1.47319801      -1.00793175      -4.61326354
I        3.15204450      12.93749473       5.98857103       0.15965944       0.15660855       0.10586095      -0.33183816      -0.74816645      -0.83240323
I       10.14377382      12.81043108       7.32109620      -0.24417220       0.40212120      -0.18034596      -2.75777506       0.42778087       0.04314146
I        6.75084020       9.67071612       6.43553191       0.10921653      -0.07945896      -0.07936327      -1.84265455      -1.04286682       2.04466804
I        6.10675324      16.19510267       6.84659067       0.20626575      -0.18911619       0.01067202       2.02892459      -0.88096205      -2.59399591
I       10.49906256      12.52976914       0.24982345       0.18114075       0.01974406      -0.01245666       0.64850618      -0.77284394      -1.90289307
I        3.71773789      13.10327698      13.83919686      -0.06065127       0.04656351       0.10367161      -0.40208584      -1.14112068       2.67410681
I        6.74741862      16.64533763      14.33346957      -0.00754540      -0.11311332      -0.09111747       0.28842293      -2.40633644       0.19679268
I        7.21017563       9.78943941       0.04538716       0.04106958       0.07561201      -0.06409122      -2.16894192       2.56323623       0.81551786
I       13.37782991      13.99377038       9.89869313       0.15426212      -0.25628637       0.13262356      -2.07224607      -1.71787562      -0.20721207
I       -0.88534050      13.07441377       3.42210024      -0.07996621       0.27251683      -0.01512432       0.95294918       0.59014894       0.21071450
I        7.57743001      13.54107649       3.84472369      -0.03497978      -0.02460680      -0.02307024       0.87451940       1.48685387       0.01676282
I        6.00602852      13.17479717      10.22675773       0.21186075      -0.13766511      -0.01716079       2.03091621      -2.19703297       0.88077040
N        9.65652627      10.54257681      16.97344728       0.76963267      -1.04773670      -0.10303133      -0.12369889      -1.12861157      -0.63473781
C        9.96970457      10.88630148      15.55681144      -0.07472405       0.84051851      -0.47162908       1.00347423      -1.02074815      -0.32695804
H       10.82663597      11.61058998      15.49848497      -0.51228909      -0.62917718       0.20046045      -0.04783651       0.08970422      -0.08280292
H        9.07184724      11.36064612      15.09766970       0.36520083      -0.21451836       0.28239756      -0.26657182      -0.24574785       0.01800715
H       10.18784419       9.96703113      14.98721737       0.14053842       0.11152703       0.25966733       0.02143568       0.18640024      -0.00832708
C       10.86166622      10.00817973      17.74316440      -0.79360231       0.15278959      -2.14890123      -0.56523355      -0.59859660       0.67849951
H       10.88337767       8.96474435      17.54000383       0.41143174      -1.02470241      -0.31903661       0.04040448       0.25827923      -0.09701427
H       10.73070171      10.14134094      18.77623466      -0.05914770       0.50875233       1.48493029       0.06819420      -0.00087997      -0.02890977
H       11.65491037      10.56026692      17.26920067       0.83619122       0.02890995       0.35329237       0.17363871       0.02510354       0.00852816
H        8.87138876       9.86151926      16.94828135       0.07824398       0.06745475       0.36993366       0.01806517      -0.31757408      -0.21890114
H        9.40697524      11.33138527      17.54092017      -0.97732527       1.13180623       0.10953847       0.03036153      -0.13007014      -0.01623561
N        3.80292439      15.94964157      24.32076660       0.10897167       1.64075764      -1.11983130       0.86186511       0.78231600      -0.35849977
C        4.56476928      16.49970998      23.11204403      -1.09818286       2.21967921       0.94896987       0.29985252      -0.44893457       0.30678058
H        3.82768121      17.08327401      22.43926601       1.22966860      -0.81183649       1.00979438       0.25382326      -0.12663671      -0.10681195
H        5.04432050      15.70798427      22.63982582       0.45875529      -1.76182910      -1.29067079      -0.07745663       0.09285475      -0.23660467
H        5.41879494      17.11098050      23.48928652      -0.75254155       0.11609023      -0.11873786      -0.19568691       0.20928485      -0.02610323
C        2.35420760      15.82291489      24.08055286       0.14597224      -2.12011155      -0.86121383       0.51361377       0.93152973      -0.52541964
H        2.29899359      14.99108039      23.32861214      -0.47958264       0.27649122       0.73423525       0.08613488       0.28227442      -0.11522894
H        1.97621552      16.67311807      23.55041589      -0.21671280       0.98426576      -0.01900875      -0.14590759       0.10308789       0.17672788
H        1.82730149      15.63167759      25.02602235      -0.00915501      -0.06591758      -0.30348663      -0.10470345       0.06270248       0.13843934
H        3.88835769      16.58736071      25.10263959       0.43376395       0.75853433       0.57594786       0.18818913       0.24231668       0.13612539
H        4.26074701      15.09983077      24.60812818       0.22615756      -1.14795233       0.47766807       0.01785841       0.41030038      -0.00429342
N        3.63724598      10.07664799      24.79737519       0.58375153       1.38028977       2.03489553       0.12244548       0.39117513       0.08538412
C        3.73317664       9.15683360      23.69212518      -0.70718390       0.39071066      -1.60250853      -0.17205028       0.56780181       0.56472758
H        2.72907071       8.88605132      23.42942377      -0.98499312       0.11229358      -0.38829415       0.13432629      -0.22242975      -0.09933258
H        4.11658551       8.20992644      23.93779170       1.33045384      -1.12878251       0.64231432      -0.18492579       0.12330914       0.07845519
H        4.20942368       9.61507258      22.80330889       0.05023825      -0.08059334       0.51630902       0.05700333       0.11081323       0.08733763
C        2.74880124      11.22157600      24.55542764      -1.01483246       2.60434819      -0.63015587       0.52238338      -0.11796556       0.39206808
H        1.73300263      10.83534964      24.32261860       0.18811975       0.14059510       0.64185567       0.03861093      -0.18944065      -0.11648627
H        3.00440605      11.78731630      23.61294403       0.43458408      -0.61019256       0.64123290       0.22082514      -0.16758381       0.15169006
H        2.77405144      12.04011299      25.40116493      -0.15806703      -1.73308693      -1.21963927       0.16766496       0.08189089      -0.05275986
H        4.54402008      10.46328392      25.15386160       0.02991658      -0.44908270      -0.44126940      -0.16280436      -0.05059414       0.23265066
H        3.24167238       9.62876625      25.64719527       0.21099491      -0.62849565      -0.19118670      -0.05970708       0.07462572      -0.07937983
N       10.84940995      16.42855199      16.62009602      -2.51230949       1.74589899       2.15874676      -0.68008743       0.21770110       0.85158484
C       10.11421261      15.19769895      16.93059121      -1.59964592      -0.47489387      -0.56187131       0.88429839      -0.23594548       0.18949018
H        9.30536644      15.08927003      16.13692791       0.64962624       0.10205892       0.85510970      -0.02313399      -0.00938500       0.08355576
H        9.61289481      15.25749923      17.93251335       0.62181650      -0.15059706      -0.64154711       0.11865116       0.06487079      -0.06735959
H       10.82105391      14.37167441      16.78081575      -0.11691961      -0.15991105       0.45147406       0.03026765       0.03399871      -0.27168110
C       10.03026908      17.72140419      16.88524864      -1.03872677      -0.62027495      -0.44015600      -0.15416194       0.93544125       0.36189014
H       10.52008780      18.62900442      16.40662619      -0.47027876      -1.12457533       0.67271791       0.00060722      -0.00739789      -0.09140362
H        9.89112662      17.77916468      17.99230921       0.38365375       0.23593357      -0.64004182      -0.07289143      -0.03868106      -0.07658389
H        8.98095726      17.53796467      16.46089265       1.39764597       0.29339897       0.18657550       0.28140688       0.23630571      -0.04589087
H       11.07871499      16.37860629      15.68253011       1.12099063       0.14355904      -2.72605239      -0.07976698      -0.24713589      -0.06067722
H       11.65264917      16.51314970      17.20765783       1.53799673      -0.10515573       0.63379680      -0.09073133       0.30977753       0.30843390
Pb       0.06614181      12.82108088      20.48421595      -0.35314166       0.15794398      -0.04033430      -1.30685565       1.90941373       2.00896602
Pb       6.32652292      13.13757198      20.34433091      -0.00129947      -0.06200652      -0.02212465      -3.50764977      -5.53922546       0.63883013
Pb      -0.09858531      12.71771976      13.66291688       0.06485805      -0.03799914       0.25024067       1.91319050      -0.82523453      -2.34584801
Pb       6.86927299      12.94465358      13.68465044      -0.03425103       0.19482609      -0.07287171       1.23545606      -2.23233596      -1.53771103
I        3.19492464      13.44573295      20.66887683       0.03698298      -0.09533564      -0.10388929       4.59652849       3.95097416      -2.89696512
I       10.23924592      12.49901302      20.78456797      -0.42112981       0.09305934       0.02079404       1.50068683      -1.07382051       1.56121783
I        6.27727941       9.81340328      20.73422621       0.19164301       0.56740142       0.06570714      -1.33900271       1.52839605       1.89390725
I        6.40691080      16.32854099      19.29979187      -0.14354788      -0.04795928      -0.11224864       1.37342424      -1.61856094      -0.03401814
I       10.09011492      13.25806431      12.66767885      -0.02660461       0.14182034       0.00680729      -1.05157931      -0.82428497       0.94582397
I        4.39371523      13.91002893      27.20600193      -0.19664739      -0.13553529      -0.05619646       0.59781338      -0.98138792      -3.86603538
I        7.91239725      16.37910210      26.21728035      -0.04343194       0.07854655       0.19247073      -0.17147144      -0.40322666      -4.19042399
I        6.56382828       9.83799864      13.51650682       0.21285577       0.21548700      -0.14971187       1.94998426       1.88072173      -4.89941840
I       13.72080251      13.38194769      23.74304068       0.04297979       0.12010224       0.40614223      -1.57737239       1.31346147      -1.07549939
I        0.37424677      13.24151604      16.94935961       0.04228711      -0.09911466       0.10845180      -1.57078057       2.14267700      -0.50314101
I        6.76639087      12.68989152      17.11681803      -0.11913042       0.10116526       0.03475517       2.28729717      -0.77635562       2.03135896
I        6.78626758      13.19001144      23.74946109       0.01570462      -0.07396005      -0.10274026      -2.05599950       0.98184765       2.03739976
N       17.46377295      15.84275105       3.19919651       0.17264562      -0.17181476       2.37254578       0.45145547       0.22586049      -0.24571194
C       18.83675358      16.21782816       3.77052881       0.21078120       0.70373660      -2.12830275       0.49994401      -0.89621130      -0.01850075
H       19.39625227      15.36700951       4.16520509      -0.04510536      -0.31778878      -0.51473491      -0.14791040      -0.13075668       0.17388991
H       18.71438883      16.89413801       4.60502813      -0.49116314       0.34533285       0.28787731       0.08731012       0.11623834       0.54762779
H       19.36482479      16.80730183       2.92521209      -0.48897699      -1.03551054       1.24099759       0.05657489      -0.06984701       0.11603386
C       16.50944888      16.97348396       3.11158125       1.65007273       1.37502689       0.11182638      -0.24593841      -0.56992036       0.84728290
H       16.51857666      17.42654809       4.12184909      -0.41616485       0.03507512      -0.41358729      -0.01818461       0.06791144      -0.03471406
H       15.56245163      16.55860256       2.81526701      -0.68338179       0.15658969      -0.26225150       0.02774749       0.02158631       0.05407866
H       16.97837160      17.70500669       2.38267287      -0.86081126      -0.56253229       0.51888975       0.12462258      -0.06674488       0.07056165
H       17.04602716      15.20235113       3.91046365       0.18825762      -0.07184911      -0.56320032       0.20851876       0.01462553      -0.25803618
H       17.40834003      15.39149363       2.28538252       0.64486372      -0.76150809      -0.67496153       0.07433197      -0.42555994       0.02927406
N       10.42742741      22.32019895       9.39938091      -1.51660604      -0.36307555       1.35683510      -0.50041688       0.35229337       0.76276951
C       11.68297714      22.46217384      10.17430728       0.44738296       0.57017825      -0.94018933      -0.18998494       0.82196670       0.04285359
H       12.35422243      23.01854097       9.51829314       0.25254311       0.29492306       0.17596561       0.40002887       0.14647220      -0.03904005
H       12.20867563      21.51605829      10.34662989      -0.52920949      -0.21244976       0.30191561       0.12972898      -0.01296820      -0.00394466
H       11.44094832      23.03270837      11.06819963       0.17286875       0.02031307       0.18548523       0.00035719       0.13118390      -0.16132731
C        9.25117874      22.20174552      10.41033517       0.64179547       0.84867283      -0.11600501      -0.29944441       0.98407311       0.86613132
H        8.36679225      21.83042148       9.90447299      -0.09291265      -0.41946968      -0.19924759       0.01870730      -0.13207367      -0.05152773
H        8.95515125      23.21329811      10.81402150       0.67258444      -0.69607531      -0.32402403       0.25566654       0.28115980       0.14556948
H        9.62737070      21.55231961      11.22236371      -0.37071346       0.16640079      -0.30548549      -0.27030937       0.06396556      -0.04713719
H       10.40247265      21.49177621       8.77058202       0.19655855      -0.11728314      -0.01250786      -0.00428540       0.02370522       0.06876320
H       10.26666220      23.14129924       8.79608469      -0.00300800       0.18171912      -0.09111637       0.17204291      -0.14220127       0.10365107
N       10.65847267      16.08458014      10.01640972      -0.30234940       0.58067078      -1.28153845       0.05556721      -0.48043498       0.86967462
C        9.38053654      16.41804985       9.35318362      -1.06507930      -1.47906063      -0.60568922       0.66872378      -0.19218152      -0.02361870
H        8.70246312      16.90249826      10.06672179       0.12777465       0.04785152       0.06403443      -0.04493982      -0.04374252       0.17144243
H        8.90137967      15.43785879       9.00883456       0.51872965       1.25593464       0.20857239      -0.09869761      -0.00229949      -0.16784237
H        9.60552336      17.09366728       8.51754266      -0.14431488      -0.11240920      -0.03036832      -0.32076230      -0.04751201       0.28081426
C       11.25497243      17.35089810      10.49177582       0.62512784       0.50285006      -1.18922572      -0.18383280      -0.16919337       0.03850552
H       10.60122336      17.88129475      11.17950657      -0.32443735       0.06803194      -0.08608270       0.25485443       0.01059150      -0.06355103
H       11.58331747      17.94851212       9.59363237      -0.81561687      -0.19849383       0.59635220       0.11275521      -0.30855520       0.25835624
H       12.18345136      17.16451278      10.96352896       1.04168487      -0.50717611       0.93075097      -0.12274688       0.03151412      -0.14226801
H       11.27259572      15.62101991       9.28601504      -0.04744828       0.12702314       0.83650988      -0.05772126      -0.06799474      -0.11202090
H       10.46416510      15.39664646      10.74131584       0.20610658      -0.37948406       0.72254077       0.15863988       0.14878259       0.02049078
N       17.64670942      22.60399745       2.58913351       0.99063683       0.05213588      -1.83331166       0.30571835       0.31296942       0.40770518
C       18.70851515      23.52830811       3.17512851      -1.48756858      -0.03025973       1.27927582      -0.16190803       0.19233600       1.05876172
H       19.20952037      24.01748946       2.33115741      -0.03127030       0.10668699       0.27202002       0.04685641       0.24619730       0.25650956
H       19.38602579      22.92668360       3.81695555      -0.15444174       0.09844791      -0.54391868      -0.25375647       0.27398095      -0.13521446
H       18.14827851      24.21133814       3.88718625       0.65363885      -0.35837875      -0.90367156      -0.17142912      -0.07553935       0.17650946
C       16.96063267      21.65632970       3.48278529       1.05820902       0.84917530       1.90893635       0.97551462       0.53985546      -0.18572389
H       16.30043143      22.27022235       4.14967614       0.31858958      -0.66551627      -0.38634637      -0.11893311      -0.21957583       0.07163606
H       17.69083459      21.02056420       4.05374389      -0.38956480       0.70989834      -0.33864163       0.24484773       0.17780265      -0.15203759
H       16.47047079      21.03161853       2.80483978      -1.48217792      -1.29332852      -0.72992994      -0.13578754      -0.13435262       0.10259412
H       18.15792765      21.99982385       1.84711367      -0.83215337       0.88303361       0.65238139      -0.06018609       0.23057069       0.39468760
H       16.85910098      23.12130685       2.06790752       1.16378110      -0.38069842       0.38342457      -0.14179197       0.04589672       0.05171064
Pb       6.95592853      19.06633513       6.70112128       0.06628110       0.30997120       0.02100854       0.81587690      -1.41994626       1.10069986
Pb      14.54977861      19.30159367       6.35390815      -0.21065554       0.11580051      -0.08068934       1.73410039       3.62098480       1.20521462
Pb       7.14701370      19.63223883      -0.32781891       0.22214107       0.00213303      -0.00516913      -1.70295899      -1.40971969       1.19345086
Pb      13.41798396      19.38376285       0.21844619       0.02165830       0.33608409       0.03513496       2.18078006      -0.31536229      -0.05292026
I       10.02663167      19.58707605       6.84326364      -0.00055864       0.07463468      -0.03926739      -0.58350481       0.92711487       1.38842847
I       17.55331004      18.73297360       6.67175119       0.14834755       0.00809455       0.21273530      -0.02625291       0.90336743      -1.83453500
I       13.17898792      16.43448803       6.57560636      -0.11117139       0.03981892      -0.13552382       1.76818215       2.85042284       0.93916558
I       14.42709139      22.74486121       6.04164193      -0.05500173       0.11749315       0.31845446      -1.83502224      -0.55457227       2.78533147
I       17.45463642      19.99770299      -0.32724097       0.16475044      -0.08121814       0.33678029      -0.70592201      -0.65647473      -4.66187496
I       10.26882927      19.79854392      13.75883813      -0.10358879       0.02628966      -0.09182024       3.77857840       0.44856491       0.97207481
I       14.25186308      23.25287034      13.78131341      -0.06407036      -0.15128013      -0.03172944      -2.18514155       1.11431069      -0.15804516
I       12.71038963      16.40603276       0.43041078       0.11871613      -0.11871570      -0.02950575       0.54949196      -2.02436616      -0.73567156
I       21.00871869      19.40994720      10.54966264       0.12944898       0.10511531       0.03737325      -3.09657594      -1.33845837       0.76536405
I        7.67632383      18.76690140       3.50482762      -0.22474187       0.10841955       0.05307799       1.08778816      -2.18564166       1.30997533
I       12.79226592      19.51948867       3.48206003       0.12948771       0.01484707      -0.09051097       0.13758655      -3.26447744      -0.06042409
I       13.95813365      20.02598211       9.18835589       0.22307789      -0.18450797       0.15162844      -2.29058705       0.17788865       3.21021778
N       17.75480908      16.37090374      17.50183556      -0.37136025      -0.03505450       0.16155755       0.26608994       0.87724718      -0.67068590
C       17.94758284      17.27620027      16.29700547       0.94745969       0.08034158       0.77280504       0.79762922       0.17462183      -0.46722071
H       16.93743963      17.48795794      16.07480463      -1.13682774       0.64179729      -1.03306487      -0.16904008       0.12563124       0.27539733
H       18.44200878      16.67427772      15.48666816      -0.28484805       0.70382678       0.59717213       0.09506949      -0.14196079       0.06673049
H       18.44234251      18.27045927      16.54740019      -0.10483399      -1.37523234      -0.13951152       0.01349752       0.17258821      -0.11525277
C       16.35659097      15.65763659      17.44526613       2.11548494       1.62072369       0.58570398      -0.10321215      -0.11729872       0.04780443
H       16.38408459      15.13871410      18.39195352      -0.72836996      -0.68700097       0.17602019      -0.15619228      -0.04445847      -0.03083725
H       16.36934727      15.03962322      16.55504837      -0.43236794      -0.15139107      -0.16604785       0.08880858      -0.06368511       0.02485718
H       15.71485457      16.54774467      17.46961281      -0.65085243      -0.70247258      -0.26629061       0.02541946      -0.12001968      -0.32197792
H       17.73165303      16.86977543      18.44521518       0.67434403      -0.28345841      -1.18972532       0.09050072       0.12718218      -0.02114332
H       18.49468028      15.64207697      17.46879190       0.05473944       0.13858065       0.45491859       0.05520730       0.01509308      -0.16145985
Cs      10.50263855      22.52366927      23.17714273       0.06481880       0.18321422      -0.02473623       3.25961472      -2.63435350       1.50334556
N        9.55178533      15.65478827      22.91204683       1.48186769      -0.93754960      -0.91864664       0.54088940      -0.77866234       0.41097716
C        9.05352860      16.21757547      21.64275267       0.01432910       0.19836509       0.16861492       0.42623360       0.24001846       0.33753477
H        8.13925329      15.73883820      21.35042467      -0.66280394      -0.62260454       0.04140663       0.02917175       0.13190454      -0.02312802
H        9.76655924      15.99303065      20.86344811       0.53114125       0.31492454      -0.29216603       0.26632379       0.03570185      -0.07349893
H        8.81037419      17.26669653      21.75004356       0.33847069       0.47093351       0.10353228      -0.32689712       0.27134589      -0.12618879
C       10.70913104      16.39290255      23.58307025       0.03568208      -1.88067443      -0.24013733       0.19336029      -0.40018752      -0.53090733
H       11.53213928      16.64748741      22.89922696      -0.33620312      -0.28764253      -0.12650012       0.19677195       0.28572613      -0.20050648