400
Lattice="25.49173263003544 0.055187602340781315 0.11263948280682129 0.05743367439189067 25.53773723597927 0.19352779265030573 0.07970034945107254 0.20602337857442118 25.459684690624773" Properties=species:S:1:pos:R:3:forces:R:3:momenta:R:3 energy=-1323.4742431640625 stress="-0.0001731293159537017 -8.237351721618325e-05 0.00039753483724780375 -8.237351721618325e-05 0.00027707815752364695 0.00034769839840009803 0.00039753483724780375 0.00034769839840009803 -0.00025102533982135355" pbc="T T T"
Cs       8.84781933       9.18496813       3.09436309       0.12702566      -0.06314503      -0.12286946       0.96905414      -0.73346025       0.63060768
Cs       3.72353031      16.05790249       9.07411785      -0.18611659      -0.08338551      -0.03621377       1.08612240       1.70390837      -0.19658297
Cs       3.15677832       9.79014673      10.11929836       0.02684825       0.04600896      -0.06211734      -0.16201641       0.06727692       1.84058112
N        9.19148134      15.61849607       4.22880899      -1.08623245       1.12603302      -0.25105031      -0.00368813       0.97017194       0.11012820
C        9.79698417      14.54623978       3.35757694      -1.76572145       0.71137629      -0.26844326      -0.37869434      -0.18007535      -0.13740450
H        8.97009349      14.09739680       2.72333651       0.70411178       0.01303421       0.96715150       0.15145649       0.09822235       0.02744043
H       10.38164633      13.85948186       3.94869960       0.12439175      -0.45209788       0.16620676      -0.08165977       0.07823092       0.06704691
H       10.38536201      15.10234253       2.65652809       0.81454709       0.24412065      -0.50553466       0.27562733      -0.26979403       0.22466233
C        8.41998481      16.70600322       3.35666291      -0.64049826      -2.09415527       2.21521007      -0.07309295       0.53300240      -0.93313172
H        8.28907209      17.60277511       3.96936839       0.42124891       0.20458498      -0.30796715       0.16545626       0.04481087       0.31451955
H        7.42410429      16.33743439       3.10467188      -0.06522421      -0.35151525       0.09255106      -0.06198692       0.00246449      -0.23546591
H        9.02129503      16.68372417       2.49941668       0.87299585       0.92026534      -1.43094176      -0.37435616      -0.04473599       0.08928863
H        9.91900360      16.22617069       4.59571558       0.97326722      -0.11957233       0.33088272       0.14524511      -0.15465362       0.31628991
H        8.68638904      15.33912016       5.14498365      -0.03090446      -0.12979139      -1.14947553       0.12597887       0.00739520       0.22437377
Pb      -0.14471613      12.78784402       6.45047629       0.19981362      -0.05378043       0.50778456       0.19563088      -0.86095571       1.52823322
Pb       6.92274293      12.65409145       6.12628832      -0.28194020       0.00453921       0.24967569      -0.42912186      -3.52594238       0.16609214
Pb       0.28903697      12.77230760       0.11004171      -0.28953169       0.00861448       0.33486233       1.04997062      -0.06337872       4.26128907
Pb       6.39885586      12.69214772      -0.28137861       0.17845405      -0.09165463       0.41557326       1.72761602       3.03642101      -2.98617584
I        3.26529905      13.15203433       6.65810544       0.17311566       0.04459126      -0.05187546       1.33473621      -0.38994868      -1.72652076
I        9.87194172      11.69553902       5.68898262       0.02512037       0.02830985       0.23136656      -1.83156467       3.48918563      -2.64653641
I        6.30371185       9.27763796       5.86030904      -0.14530864       0.30338194       0.03390002       1.40991410       2.98899765       1.34618582
I        7.04755364      15.85358393       6.92311745      -0.03164115      -0.10964844       0.14731141       0.87829639       1.33364817      -0.72105502
I        9.73399797      11.97532654       0.55605095       0.06316999      -0.04951645      -0.04349786      -1.03871459       4.07498327      -1.36963210
I        3.30885119      13.11459882      11.88287396       0.00819173       0.03482453       0.21412291       0.55731980      -0.54175767       0.36827408
I        6.01389299      16.07612647      11.89087388       0.18410686       0.08143375       0.11364847      -0.34471367       1.56920988       0.46152057
I        5.66527701       9.30955850       0.17693568      -0.01598085       0.25320198       0.02114537       0.30462534       0.53906621      -3.00259096
I       12.71774881      13.27891729       9.71604707       0.11998864       0.02744509      -0.18521817      -1.26862265      -3.32399699      -0.07109722
I        0.75821881      12.39617413       3.63178023      -0.12625107      -0.02033143      -0.49127296       2.28272174      -2.10136435      -0.37732323
I        6.27093289      12.88289334       3.08652412      -0.14374001      -0.01385284       0.13678266      -1.69717719       0.51843266      -0.13424928
I        6.67612015      11.85553316       9.58532665       0.07322083       0.05117860      -0.15705430      -0.61248930      -0.27162243       0.75662821
N        9.55148641      10.04658024      16.52817499      -0.32061983       1.86124275       1.45933673      -0.91404220      -1.23859179      -0.37240563
C        8.17897915       9.53896640      16.73865370      -0.65542148       0.97702615      -0.64058762       0.78657678       0.62432944       1.23201182
H        7.47085264      10.41434071      16.56143906       0.48467513      -1.19025767      -0.18292339       0.39532279       0.02965501      -0.03699576
H        7.99940970       9.16591810      17.74705564       0.39751880       0.12199974       0.31215362      -0.00063975       0.35473513       0.13178023
H        8.09304115       8.70370432      16.06056198      -0.59511490      -0.24029293      -0.52569356       0.07920643      -0.20958724       0.05547948
C        9.94695288      10.34738427      15.10236448       1.01825501      -0.85892705       1.71361369       0.13360041       0.32296220      -0.21638246
H        9.09511979      10.75845089      14.65497126      -1.35485521       0.84127566      -0.92326357      -0.19431090       0.25822316      -0.19007685
H       10.20095525       9.40113834      14.62792146       0.22552406      -0.13655148      -0.16791361      -0.13542045       0.07008648       0.01683567
H       10.77597668      11.06000449      15.16465100       0.07140211      -0.10815768      -0.33839523       0.16885812       0.23531935      -0.05799754
H       10.17856438       9.47830702      17.08528496       0.84567249      -0.94186607      -0.20750592       0.15213297       0.42872533      -0.24071654
H        9.60773542      10.94022464      17.12458715       0.00439603      -0.38519031      -0.66774519       0.01666147      -0.06058343       0.08949004
Cs       3.54175423      16.48787490      22.35952322      -0.09531676       0.15209284       0.13617751      -2.13436962       0.52537461      -1.49431461
Cs       3.33918780      10.12913418      22.33895771       0.06581208      -0.00505765       0.15642835       0.04669838       1.70828310       0.52163570
N        8.38475501      14.94128039      16.47994914       2.02202811       1.67172039      -0.72885121       0.38040954      -0.12262901       0.20644289
C        9.90413883      14.98556594      16.49664899      -0.64194341      -0.94747463       1.56162812      -0.21517688      -0.57211103       0.28791200
H       10.20462223      16.00528427      16.47216004       0.10703547       1.15786509       0.14097075      -0.15136214       0.05914186       0.03162106
H       10.28387087      14.53743280      15.61954202       0.29655074      -0.78652620      -1.22762952       0.24657635       0.14373060      -0.07521329
H       10.35626951      14.49731964      17.40264526      -0.62327357       0.23710315      -0.61882119       0.10002364       0.32081333      -0.07939603
C        7.90831387      15.93238906      15.43155679       0.61489555       1.01652338       1.39761724      -0.80001150      -1.47071974      -1.24216700
H        6.81787301      15.99434548      15.49682412      -0.08551016      -0.02035822      -0.26029694       0.08983426      -0.02252799       0.05178016
H        8.30403206      15.68033256      14.44697931      -0.08270209      -0.29717749      -0.13044335      -0.10823749      -0.09530417       0.11456657
H        8.36524758      16.94113118      15.75075479      -0.70055552      -1.22460543      -0.48817420      -0.32911726       0.18301303       0.12261183
H        8.06056168      15.26843292      17.38898971      -0.41906290       0.36559725       0.76901723      -0.07480447       0.00343674      -0.12285033
H        8.01284025      14.00988075      16.39595076      -0.53767136      -1.12340565      -0.49609707       0.27750966      -0.04337436       0.22433606
Pb       0.17570204      12.89394954      18.96917273      -0.01772214       0.09483011       0.33507185       3.33027450      -3.66001888       0.14890798
Pb       6.25379526      12.82066378      19.20441963      -0.13848211      -0.00753264       0.15689450       0.16281930       1.10080424       1.37231143
Pb       0.07829047      13.33731357      12.93834449      -0.00504921      -0.06869415      -0.23904413       3.07585317       0.28929172       3.51791624
Pb       6.40721271      12.79611800      12.51231084       0.01194348       0.20958801      -0.11779552      -0.18515100      -0.33255602      -0.41228926
I        3.33775684      13.54726169      20.35504665      -0.06427686      -0.25176019      -0.21173214       1.70555418       1.16191706      -3.79880038
I        9.72509415      12.24622166      19.37523154      -0.42048022      -0.09807153      -0.20557790       1.40268302       1.30022015      -0.65917908
I        5.65775306       9.54482922      19.31097025      -0.26380746       0.12082947       0.06269808      -2.92238982       3.21715538      -1.02282453
I        6.44737159      15.89345335      19.41789056       0.16478631       0.26897957       0.04119785      -1.06795890      -2.91519914       1.95263808
I        9.75783636      13.03698920      12.22243286      -0.05103010      -0.04851559       0.09561977      -0.10436380       0.06852839      -0.47065826
I        3.40391037      13.55987099      25.21999994      -0.06835402       0.07028923      -0.09769316      -0.00467762       3.57285692       1.02659782
I        6.96132561      15.82222891      24.51755720      -0.27015312       0.17336075       0.36057710       2.19096732       0.88927196       0.09470902
I        5.90914196       9.80545974      13.13884035      -0.04944074      -0.33302252       0.13683194      -2.30771525       2.87561920      -2.15722062
I       12.74834569      13.06504036      22.65955924      -0.04378356       0.15483029      -0.19445439      -2.42410058       0.69208414      -0.04475973
I        0.63364748      12.63321176      16.01041445       0.28996656      -0.08085504      -0.03219148      -1.36877198       0.36915186       1.13272906
I        5.37019045      13.02543767      16.22623383       0.01537853      -0.15489074      -0.13082269       2.49242048      -0.81100046       0.80968048
I        7.54213971      12.51858032      22.45190242      -0.06557734      -0.12022412      -0.42379358      -1.11642740       1.57328476      -0.90157580
Cs      16.17572898      16.26065587       3.90719126       0.06008005       0.10182779      -0.33584911       1.14708092       1.42294483      -1.19551359
Cs       9.98023185      22.79469601       9.68515146      -0.09214172      -0.15445023       0.04232614      -2.64971908      -1.29995687       0.92088436
Cs       9.99012235      16.53613343       9.54528277      -0.08196771      -0.17345433       0.05777692      -0.02645169      -3.46934240       1.62273886
Cs      15.97226376      21.85547601       3.47460317       0.17757232      -0.02375419       0.03397240       0.31977488       1.03393878      -2.36146613
Pb       6.11997210      19.38610707       6.82269624       0.31686528      -0.14028136      -0.30610943       2.01764232       0.83260199      -1.54879606
Pb      12.81866089      19.18577581       6.56627823       0.01564358       0.11254883       0.14681932       0.05149224       2.36153721      -2.79959990
Pb       6.48979224      19.05403396       0.26290822      -0.13667890      -0.07063495       0.21889242       2.38219865      -1.72149976      -1.00820822
Pb      12.69035129      19.33247566       0.02214524       0.30123561      -0.27065550       0.23593211       2.07911998      -2.30405059      -0.52441135
I        9.32344995      19.75071134       7.42982677       0.16215809       0.05856736      -0.12492267      -0.24374632       1.31789118       4.34076217
I       15.89514920      18.53189476       6.86363285       0.09535894       0.21227687      -0.29647031       0.65885557      -0.29566980      -0.88989921
I       12.47321510      16.05268295       6.28823892      -0.18675237       0.12709058      -0.05196557       0.54024868       1.11576029       1.52708642
I       13.37471143      22.57243348       6.78449152      -0.03029079      -0.19818771       0.07512270      -0.38212018      -1.79671509       1.49386623
I       15.80140995      19.20889942       0.65130089       0.47304678      -0.20152018      -0.01453996      -0.98527305       1.99374605      -1.84683661
I        9.39484462      18.95254493      12.30240983      -0.04109516       0.16698491       0.07356893      -1.39891297       0.85079120       2.69924299
I       12.16100629      22.36039843      13.11007817      -0.09591111       0.15432827      -0.14465943       1.06667962       0.45035500       2.24508143
I       11.88402517      15.88738066      -0.18569699       0.15202741       0.17083886       0.16291161      -0.25324155      -1.28576893       0.09843660
I       18.94790364      18.92233790       9.46750031       0.05777195       0.08277128       0.59736757       2.02263535       3.63979058       1.79846886
I        6.28744324      19.67294626       3.60420727      -0.02716815       0.21572080      -0.08216495       1.51143186      -0.82015040      -2.03467557
I       12.65309480      19.43762038       3.42381493       0.14034284      -0.02982680       0.06646151       2.61314769      -0.39854767       0.99358639
I       13.00137308      18.74746887       9.69971034      -0.01352901       0.06662063       0.22404106      -1.01635165      -2.18178044       0.25139444
Cs      15.23450531      15.91239353      16.09406996       0.03723453       0.21265444       0.17310641       1.63110342       0.29297749       1.19920290
Cs       9.14659003      22.02839876      22.75528550       0.00817393       0.21058768       0.14605069       3.09914040      -3.08834241       1.49359926
Cs       9.62799021      16.15317779      22.42592767       0.30897067       0.03757305      -0.40788731       3.67965754      -1.04950220      -0.15095951
N       16.67128911      23.00126098      16.11595304       0.25639283       2.96736376       0.85441663      -0.55480246      -0.37738559      -0.44609178
C       15.93584218      24.28933597      16.57769164      -0.34783484       0.10127127       0.08840660      -0.09969143      -0.21113086      -0.14764083
H       16.60977414      24.77222671      17.33398787      -0.46862079      -0.07562456      -0.69011155       0.09645625      -0.09169034       0.06560026
H       14.99907917      23.96456412      17.09992237       0.60082417       0.06979373      -0.29238714      -0.17161789       0.00216757       0.29549837
H       15.63456697      24.99772994      15.72147569       0.66701783      -1.06611105       0.85816291       0.25353901       0.23571828       0.11709227
C       15.78222747      21.98028500      15.64138625       0.28820912      -1.64446973      -0.69840121       0.02769931      -0.04772286      -0.33722929
H       14.99370861      21.72076309      16.31927772      -0.28865458      -0.10696243       0.90691844       0.15923623       0.00900754       0.19382943
H       16.36384149      21.07565186      15.33912947      -0.40922183       0.50743888       0.17853507      -0.31645829      -0.07183622      -0.00866860
H       15.30899112      22.41333340      14.78700322      -0.51418235       0.05608776      -0.99218858       0.24514263      -0.34711793      -0.16481347
H       17.30463025      22.80434747      16.94276090      -0.14808232      -0.74410664      -0.51509414      -0.20097093      -0.30147920      -0.14103118
H       17.23779834      23.27993813      15.28965863       0.45565486      -0.15825460       0.35982399       0.15692938      -0.01860796      -0.25648435
Pb       6.55473556      19.37476440      18.94888897      -0.18183253      -0.07479457       0.66861589      -0.10311100      -1.61744306      -0.13329243
Pb      12.85915614      19.66699988      19.25088416      -0.00149376      -0.16257798       0.22309759       3.10642766      -1.14475879       2.41199693
Pb       6.07531177      19.30913769      12.69856494       0.36166996      -0.10200017      -0.03096533      -1.46974841       1.17086242       3.95211526
Pb      12.73785851      19.30696255      13.18848218      -0.02156554      -0.28092282      -0.14558065      -0.60636543      -2.32418207       1.91403859
I        9.71100754      19.88562544      20.00882873      -0.13113303      -0.19330342      -0.27435703      -1.15231015       0.06796985      -0.74244373
I       15.85786772      18.43851009      18.71099028       0.15239142       0.11645018       0.18209188      -1.26269306      -2.96587158      -0.21675198
I       12.52284288      16.20468051      18.98183165      -0.04731678      -0.04358276       0.25510762       3.14566771       0.62514432      -1.33157956
I       13.54471171      22.58071119      20.29598956      -0.00568994       0.20923245      -0.15633329      -0.44688833      -0.15071366      -0.27661384
I       15.91653016      18.59365027      13.13789196       0.04817736       0.05175040       0.03252604      -1.86198944      -1.33302446       0.28299180
I        9.82199351      19.85422945      25.94882117      -0.55570018       0.13573652      -0.05523626      -3.16523168       0.99559920       1.91519193
I       13.08806746      22.54440140      25.29297534       0.13202810       0.39666805      -0.07287084       1.38881010      -0.42154317      -0.67963568
I       12.35673524      16.18029820      13.30775772       0.06503591      -0.24502200      -0.03633970       2.09803431      -0.43649900       1.81072853
I       18.76465325      19.79178153      22.39833251      -0.08842954      -0.05914548       0.29160511       1.03610379      -2.28830075       1.55008450
I        6.74861500      19.73406359      16.12543259       0.13942928       0.07715301      -0.54699828       2.93436047      -0.09796017       0.49622931
I       12.02054548      19.76022856      16.28725247      -0.01752258      -0.03574110      -0.17600538      -1.61537060      -0.54192829       4.00167155
I       13.05329528      19.24813977      22.52242648       0.08981684      -0.21521505      -0.32298588      -1.79205001      -1.03227939       1.77857930
Cs      10.40432518      22.33269434       3.84870626      -0.16044101      -0.01996911       0.01444495       0.23244856      -2.06634091      -0.83965703
Cs       3.53426628       3.63456764       9.85262225       0.00914659      -0.10823551      -0.10488567      -0.34012256      -1.12023460       0.60851192
Cs       3.29171621      23.49796148       9.94048778       0.14370933      -0.02436332       0.07518944       2.83776095      -0.35897723       0.40368338
Cs       9.60322392       2.09861544       3.34142615      -0.15228909       0.09757993      -0.08785229       0.50323982      -2.10015773       2.15132367
Pb      -0.01545119       0.07244936       6.35358341       0.03775850       0.10666553       0.08528095      -2.29655031       1.88589257       0.05560944
Pb       6.33762369      -0.05422613       6.45850941       0.06256618       0.03258283      -0.33370606      -0.14263279      -0.28722696      -0.45851136
Pb       0.24172505       0.17022251      -0.18922322      -0.13002027      -0.25060184       0.11757988      -1.05216238      -0.83129204       4.45922895
Pb       6.45294327      -0.33064147       0.05642253       0.07752112       0.07274169       0.00136379      -1.67772164       1.38550040      -1.11920311
I        3.33267595       0.64071180       6.87847986      -0.20327271       0.07631582      -0.02165610      -3.89032955      -2.22305447      -1.73761797
I        9.74426661      25.22384692       6.42681367       0.06759030      -0.08797764      -0.14479884      -3.56060709      -3.21313226       3.93584009
I        5.60551444      22.38699115       6.88609853      -0.10444994       0.02970593      -0.12094835      -1.46584100      -1.69640979      -1.56263536
I        6.81410641       3.04625468       6.55037006       0.21335503       0.15225199      -0.01191776       2.44164821      -1.88521744       1.90623374
I        9.61453432      24.58234547       0.84453545      -0.02657699       0.12707537       0.02763656      -1.19332158      -4.28129070      -1.80948393
I        3.13796073       0.73503299      12.53040584       0.28910515       0.00056745       0.02410579      -0.57720265      -0.24422723      -0.25354491
I        6.85955688       3.04859732      11.81314533      -0.01810126       0.46084461       0.02302986       2.09773224       0.03354443       1.12203344
I        5.54858649      21.96172111      -0.31469899       0.16269685       0.21633476       0.29062474       1.13861675       1.89914462      -2.50436709
I       11.97471818       0.31391906       9.59847276       0.46147231      -0.20854208      -0.06667141      -2.54193590      -0.09863175      -1.11123067
I        0.90051748      25.78073675       3.41106600      -0.12403655      -0.18872764      -0.01732064      -0.64013039       3.01569205      -1.24645171
I        6.02451779      -0.80040360       3.24356165      -0.00954630       0.11228563      -0.18668915      -4.20566329       0.60055863      -5.19624424
I        6.91749802      25.24365963       9.57422519       0.05573572      -0.07083231       0.51299596       0.06689274       5.26228706      -1.06498724
Cs       9.59046020      22.67278888      16.10267697      -0.11927161       0.02160056       0.00103676       0.29996676      -0.65317106       2.41886010
Cs       3.47953377       3.73216705      22.24900368       0.21482065      -0.12937418       0.04207213       0.73831062       0.68009710       0.45319767
Cs       3.31812978      22.96348296      22.50702644      -0.09702177      -0.04874718      -0.13836267      -2.56269033      -1.49906312       1.64785895
Cs       9.80891212       2.87943972      16.24413704       0.04552211      -0.00235605      -0.09843635      -0.11371533      -0.43570887       2.29020446
Pb       0.49111425      -0.15056336      18.87996973      -0.15762748       0.20009099       0.12916073       0.06066658      -0.76570526       0.98740619
Pb       6.58718979       0.33229011      19.27284292       0.01627713      -0.29120405       0.01830234       1.79680982       3.45308952      -0.63672704
Pb      -0.02107950       0.32574227      12.74470129       0.07898372       0.03808685       0.01333725       2.89447698       4.32248083       0.63948224
Pb       6.62432029       0.13876731      12.66509802      -0.02185789      -0.06544215      -0.00369558      -1.48013677      -1.93892480      -1.97515864
I        3.51064388       0.52786731      20.12847359      -0.02428005       0.05881484      -0.16583023      -4.00994057       1.89213755       1.07295303
I       10.05464622      24.95850901      19.46018536      -0.25700097       0.02672400       0.02944625       0.03826360       1.36630001      -2.90527564
I        5.85688830      22.43000759      19.23067099       0.05548402      -0.03767701       0.08024114      -0.69503699      -2.00618177      -1.30664155
I        6.74586521       3.36068210      19.70372455      -0.01255927       0.06039592      -0.02296576       0.64556061      -0.77986845      -1.09894473
I        9.82675691      25.89081872      13.11939925      -0.15095342      -0.04521492       0.02268474       0.93449377      -2.63168724       2.78606623
I        3.40082557       0.87800074      25.44328440       0.07266690      -0.02841055      -0.23302810       1.72195005       0.74323578       0.75793255
I        7.12601103       3.14255899      25.08068295      -0.05782796      -0.09499500       0.15810948       1.67088347      -1.45749070      -2.40684321
I        6.95545994      22.45601889      13.02535368      -0.08062880      -0.08989913      -0.03927631      -1.88778419      -0.72147324       4.61791648
I       12.35195272       1.06521604      22.73965180       0.02505996      -0.09097937      -0.17051807       1.36397687      -2.49359317      -2.04519140
I        0.70866678      24.78319365      16.04831864      -0.01256081       0.17542570      -0.16827496       3.24964208      -1.89792238       1.76675328
I        6.51832847       0.10214030      15.90405838      -0.04239344       0.10933973       0.09231381      -1.74748971       1.27802625      -0.00297037
I        7.08524493      25.25302308      22.48448776      -0.00124143       0.01403776       0.14031770       1.60184700      -0.83035503       0.25651605
Cs      16.25036069       3.40103874       3.41219513      -0.05324924      -0.23567554       0.02697146      -2.50078615       1.97231220       3.09642045
Cs      10.50454024       9.99330236       9.69038398      -0.00846680       0.06043807       0.09061441      -1.50713512       1.65703035      -1.64566004
Cs      10.53560007       3.42313588       9.70994528      -0.27130877       0.36389330       0.07274963      -0.06057282       0.10174814       2.20934681
Cs      16.11571244       9.60352052       3.74753078      -0.11335110      -0.05093280      -0.26515364      -0.55592378       0.68344754      -1.61305670
Pb       6.85041309       6.34226661       6.62360264      -0.09268490      -0.09393783      -0.01609823       2.07567007       0.10955552      -0.05468283
Pb      13.19385374       6.48674594       6.29932347      -0.44361523       0.11693048       0.21673804      -0.65889330      -0.19120206       3.23444973
Pb       6.37123019       6.39237154       0.14577452       0.19585097      -0.34206978      -0.07641756       0.99320850       0.95143708       0.42972314
Pb      12.84425417       6.37671749       0.34474339       0.21559283       0.06623632      -0.00083847      -0.84844144      -0.33927603      -2.39467257
I        9.85947072       7.31230564       7.36795080      -0.06194835      -0.28076720      -0.12005611      -0.43534885       0.14164484       1.67042409
I       16.10793714       6.09471837       5.88133248       0.32784538       0.02224335       0.12265567      -2.71875573      -0.61357429      -1.07511913
I       12.39102813       3.31336276       5.81891915      -0.06203346       0.33302218      -0.00549090      -0.51503325       3.34715773       2.01443411
I       13.70307519       9.96266342       6.91637785       0.06189534      -0.19868910       0.12134300       0.24767730       0.99465914       3.37279144
I       16.26684819       5.60969415       0.73633575      -0.04752033       0.31410724      -0.33154845       3.38255703       0.19744010       1.67783574
I       10.01660664       6.42768760      12.52467675      -0.27966557       0.06590287      -0.13329969       1.52439800       0.93455886      -0.22376576
I       13.86447707       9.60494518      12.46829373      -0.31006820       0.18798800       0.17949718      -2.95932894      -0.25961365       1.65710250
I       12.51911118       3.35579921       1.27124493      -0.06383158      -0.25652496       0.02690838       0.02501363      -3.01307551      -1.29876617
I       18.86274589       6.63992938       9.59931133      -0.32901243      -0.29288405       0.00133059      -1.47379208       1.48971866      -0.62596260
I        6.53583285       5.85226255       3.32392802       0.13350475       0.00543932      -0.04121688      -3.19269085       1.43464288      -2.37556915
I       12.45353871       7.61016679       3.56034168       0.04358402      -0.00652659      -0.17808289       0.71055260      -1.23981686      -1.96509129
I       13.35792454       6.17024408       9.61794204       0.12857071      -0.09102496      -0.05242053       0.46565390       1.50457727       1.77056657
Cs      16.02931089       3.09968761      16.24189186      -0.03314524      -0.01097926      -0.17733454       0.88308567       0.78890810       0.00030723
Cs      10.49742922      10.15836696      22.72576593      -0.07941468      -0.27494579       0.07586221       1.62573305      -1.10478474       0.17445610
Cs       9.36649990       4.09883182      22.20425794       0.27067027      -0.02992727       0.08075644      -3.61642362       2.58333254      -0.43588188
Cs      16.03553626       9.81432443      16.15937796      -0.17071077      -0.01428123      -0.07340882       1.06635840      -0.79606654      -2.87308285
Pb       6.83319264       6.64963055      18.94144513      -0.10470687      -0.18539242       0.03047328       3.67156971       2.88729889       0.57537572
Pb      13.20133114       6.75447632      19.19509092      -0.25637468      -0.28456188      -0.11707087       2.39253808       2.11891325      -0.44995098
Pb       6.20504750       6.67210082      12.66066089       0.52642556      -0.11873841       0.13253936       0.95455144      -0.37284228       1.84262734
Pb      13.11165343       6.43502204      12.72494216       0.00949551      -0.02161718       0.21391161       2.67169985      -0.53225794       0.04661883
I        9.83551583       7.30977978      19.38171436       0.16971201      -0.03916676       0.06856562       1.60568765       1.69627811       1.98661681